
     Program PWSCF v.7.3 starts on 27Apr2024 at 16:35: 5 

     This program is part of the open-source Quantum ESPRESSO suite
     for quantum simulation of materials; please cite
         "P. Giannozzi et al., J. Phys.:Condens. Matter 21 395502 (2009);
         "P. Giannozzi et al., J. Phys.:Condens. Matter 29 465901 (2017);
         "P. Giannozzi et al., J. Chem. Phys. 152 154105 (2020);
          URL http://www.quantum-espresso.org", 
     in publications or presentations arising from this work. More details at
     http://www.quantum-espresso.org/quote

     Parallel version (MPI), running on    48 processors

     MPI processes distributed on     1 nodes
     254599 MiB available memory on the printing compute node when the environment starts
 
     Reading input from sc.in

     Current dimensions of program PWSCF are:
     Max number of different atomic species (ntypx) = 10
     Max number of k-points (npk) =  40000
     Max angular momentum in pseudopotentials (lmaxx) =  4
 
     K-points division:     npool     =      48
     Subspace diagonalization in iterative solution of the eigenvalue problem:
     a serial algorithm will be used

 
     G-vector sticks info
     --------------------
     sticks:   dense  smooth     PW     G-vecs:    dense   smooth      PW
     Sum        1003    1003    283               127553   127553   19429
 
     Using Slab Decomposition
 


     bravais-lattice index     =            4
     lattice parameter (alat)  =       6.0199  a.u.
     unit-cell volume          =     944.6376 (a.u.)^3
     number of atoms/cell      =            3
     number of atomic types    =            2
     number of electrons       =        26.18
     number of Kohn-Sham states=           17
     kinetic-energy cutoff     =     100.0000  Ry
     charge density cutoff     =     400.0000  Ry
     scf convergence threshold =      1.0E-12
     mixing beta               =       0.7000
     number of iterations used =            8  plain     mixing
     Exchange-correlation= PBE
                           (   1   4   3   4   0   0   0)

     celldm(1)=   6.019885  celldm(2)=   0.000000  celldm(3)=   5.000000
     celldm(4)=   0.000000  celldm(5)=   0.000000  celldm(6)=   0.000000

     crystal axes: (cart. coord. in units of alat)
               a(1) = (   1.000000   0.000000   0.000000 )  
               a(2) = (  -0.500000   0.866025   0.000000 )  
               a(3) = (   0.000000   0.000000   5.000000 )  

     reciprocal axes: (cart. coord. in units 2 pi/alat)
               b(1) = (  1.000000  0.577350  0.000000 )  
               b(2) = (  0.000000  1.154701  0.000000 )  
               b(3) = (  0.000000  0.000000  0.200000 )  


     PseudoPot. # 1 for Mo read from file:
     ../pseudo/Mo.UPF
     MD5 check sum: 4e1c3579de4f68baf863f15f5be96aa1
     Pseudo is Norm-conserving + core correction, Zval = 14.0
     Generated using ONCVPSP code by D. R. Hamann
     Using radial grid of 1640 points,  6 beta functions with: 
                l(1) =   0
                l(2) =   0
                l(3) =   1
                l(4) =   1
                l(5) =   2
                l(6) =   2

     PseudoPot. # 2 for S  read from file:
     ../pseudo/S.UPF
     MD5 check sum: a7319d53700e7dada26ada44d0048388
     Pseudo is Norm-conserving + core correction, Zval =  6.0
     Generated using ONCVPSP code by D. R. Hamann
     Using radial grid of 1146 points,  6 beta functions with: 
                l(1) =   0
                l(2) =   0
                l(3) =   1
                l(4) =   1
                l(5) =   2
                l(6) =   2

     atomic species   valence    mass     pseudopotential
     Mo               14.00    95.95000     Mo( 1.00)
     S                 6.00    32.06000     S ( 1.00)

     12 Sym. Ops. (no inversion) found



   Cartesian axes

     site n.     atom                  positions (alat units)
         1        Mo     tau(   1) = (   0.0000000   0.0000000   0.0000000  )
         2        S      tau(   2) = (   0.5000000   0.2886750  -0.4913414  )
         3        S      tau(   3) = (   0.5000000   0.2886750   0.4913414  )

     number of k points=    61  Fermi-Dirac smearing, width (Ry)=  0.0050
                       cart. coord. in units 2pi/alat
        k(    1) = (   0.0000000   0.0000000   0.0000000), wk =   0.0034722
        k(    2) = (   0.0000000   0.0481125   0.0000000), wk =   0.0208333
        k(    3) = (   0.0000000   0.0962250   0.0000000), wk =   0.0208333
        k(    4) = (   0.0000000   0.1443376   0.0000000), wk =   0.0208333
        k(    5) = (   0.0000000   0.1924501   0.0000000), wk =   0.0208333
        k(    6) = (   0.0000000   0.2405626   0.0000000), wk =   0.0208333
        k(    7) = (   0.0000000   0.2886751   0.0000000), wk =   0.0208333
        k(    8) = (   0.0000000   0.3367877   0.0000000), wk =   0.0208333
        k(    9) = (   0.0000000   0.3849002   0.0000000), wk =   0.0208333
        k(   10) = (   0.0000000   0.4330127   0.0000000), wk =   0.0208333
        k(   11) = (   0.0000000   0.4811252   0.0000000), wk =   0.0208333
        k(   12) = (   0.0000000   0.5292377   0.0000000), wk =   0.0208333
        k(   13) = (   0.0000000  -0.5773503   0.0000000), wk =   0.0104167
        k(   14) = (   0.0416667   0.0721688   0.0000000), wk =   0.0208333
        k(   15) = (   0.0416667   0.1202813   0.0000000), wk =   0.0416667
        k(   16) = (   0.0416667   0.1683938   0.0000000), wk =   0.0416667
        k(   17) = (   0.0416667   0.2165064   0.0000000), wk =   0.0416667
        k(   18) = (   0.0416667   0.2646189   0.0000000), wk =   0.0416667
        k(   19) = (   0.0416667   0.3127314   0.0000000), wk =   0.0416667
        k(   20) = (   0.0416667   0.3608439   0.0000000), wk =   0.0416667
        k(   21) = (   0.0416667   0.4089564   0.0000000), wk =   0.0416667
        k(   22) = (   0.0416667   0.4570690   0.0000000), wk =   0.0416667
        k(   23) = (   0.0416667   0.5051815   0.0000000), wk =   0.0416667
        k(   24) = (   0.0416667   0.5532940   0.0000000), wk =   0.0416667
        k(   25) = (   0.0833333   0.1443376   0.0000000), wk =   0.0208333
        k(   26) = (   0.0833333   0.1924501   0.0000000), wk =   0.0416667
        k(   27) = (   0.0833333   0.2405626   0.0000000), wk =   0.0416667
        k(   28) = (   0.0833333   0.2886751   0.0000000), wk =   0.0416667
        k(   29) = (   0.0833333   0.3367877   0.0000000), wk =   0.0416667
        k(   30) = (   0.0833333   0.3849002   0.0000000), wk =   0.0416667
        k(   31) = (   0.0833333   0.4330127   0.0000000), wk =   0.0416667
        k(   32) = (   0.0833333   0.4811252   0.0000000), wk =   0.0416667
        k(   33) = (   0.0833333   0.5292377   0.0000000), wk =   0.0416667
        k(   34) = (   0.0833333   0.5773503   0.0000000), wk =   0.0208333
        k(   35) = (   0.1250000   0.2165064   0.0000000), wk =   0.0208333
        k(   36) = (   0.1250000   0.2646189   0.0000000), wk =   0.0416667
        k(   37) = (   0.1250000   0.3127314   0.0000000), wk =   0.0416667
        k(   38) = (   0.1250000   0.3608439   0.0000000), wk =   0.0416667
        k(   39) = (   0.1250000   0.4089564   0.0000000), wk =   0.0416667
        k(   40) = (   0.1250000   0.4570690   0.0000000), wk =   0.0416667
        k(   41) = (   0.1250000   0.5051815   0.0000000), wk =   0.0416667
        k(   42) = (   0.1250000   0.5532940   0.0000000), wk =   0.0416667
        k(   43) = (   0.1666667   0.2886751   0.0000000), wk =   0.0208333
        k(   44) = (   0.1666667   0.3367877   0.0000000), wk =   0.0416667
        k(   45) = (   0.1666667   0.3849002   0.0000000), wk =   0.0416667
        k(   46) = (   0.1666667   0.4330127   0.0000000), wk =   0.0416667
        k(   47) = (   0.1666667   0.4811252   0.0000000), wk =   0.0416667
        k(   48) = (   0.1666667   0.5292377   0.0000000), wk =   0.0416667
        k(   49) = (   0.1666667   0.5773503   0.0000000), wk =   0.0208333
        k(   50) = (   0.2083333   0.3608439   0.0000000), wk =   0.0208333
        k(   51) = (   0.2083333   0.4089564   0.0000000), wk =   0.0416667
        k(   52) = (   0.2083333   0.4570690   0.0000000), wk =   0.0416667
        k(   53) = (   0.2083333   0.5051815   0.0000000), wk =   0.0416667
        k(   54) = (   0.2083333   0.5532940   0.0000000), wk =   0.0416667
        k(   55) = (   0.2500000   0.4330127   0.0000000), wk =   0.0208333
        k(   56) = (   0.2500000   0.4811252   0.0000000), wk =   0.0416667
        k(   57) = (   0.2500000   0.5292377   0.0000000), wk =   0.0416667
        k(   58) = (   0.2500000   0.5773503   0.0000000), wk =   0.0208333
        k(   59) = (   0.2916667   0.5051815   0.0000000), wk =   0.0208333
        k(   60) = (   0.2916667   0.5532940   0.0000000), wk =   0.0416667
        k(   61) = (   0.3333333   0.5773503   0.0000000), wk =   0.0069444

     Dense  grid:   127553 G-vectors     FFT dimensions: (  40,  40, 192)

     Estimated max dynamical RAM per process >     123.41 MB

     Estimated total dynamical RAM >       4.36 GB
 ----2D----2D----2D----2D----2D----2D----2D----2D----2D----2D----2D----2D
  The code is running with the 2D cutoff
  Please refer to:
  Sohier, T., Calandra, M., & Mauri, F. (2017), 
  Density functional perturbation theory for gated two-dimensional heterostructu
 res:
  Theoretical developments and application to flexural phonons in graphene.
  Physical Review B, 96(7), 75448. https://doi.org/10.1103/PhysRevB.96.075448
 ----2D----2D----2D----2D----2D----2D----2D----2D----2D----2D----2D----2D

     Initial potential from superposition of free atoms

     starting charge      25.9985, renormalised to      26.1800

     negative rho (up, down):  7.082E-06 0.000E+00
     Starting wfcs are   18 randomized atomic wfcs

     total cpu time spent up to now is        5.0 secs

     Self-consistent Calculation

     iteration #  1     ecut=   100.00 Ry     beta= 0.70
     Davidson diagonalization with overlap
     ethr =  1.00E-02,  avg # of iterations =  4.7

     total cpu time spent up to now is        8.9 secs

     total energy              =    -184.06409536 Ry
     estimated scf accuracy    <       1.27620521 Ry

     iteration #  2     ecut=   100.00 Ry     beta= 0.70
     Davidson diagonalization with overlap
     ethr =  4.87E-03,  avg # of iterations =  4.5

     total cpu time spent up to now is       13.2 secs

     total energy              =    -182.95472784 Ry
     estimated scf accuracy    <      17.21360494 Ry

     iteration #  3     ecut=   100.00 Ry     beta= 0.70
     Davidson diagonalization with overlap
     ethr =  4.87E-03,  avg # of iterations =  2.6

     total cpu time spent up to now is       16.5 secs

     total energy              =    -184.91224510 Ry
     estimated scf accuracy    <       0.02632603 Ry

     iteration #  4     ecut=   100.00 Ry     beta= 0.70
     Davidson diagonalization with overlap
     ethr =  1.01E-04,  avg # of iterations =  5.4

     total cpu time spent up to now is       21.1 secs

     total energy              =    -184.92532098 Ry
     estimated scf accuracy    <       0.03428530 Ry

     iteration #  5     ecut=   100.00 Ry     beta= 0.70
     Davidson diagonalization with overlap
     ethr =  1.01E-04,  avg # of iterations =  2.2

     negative rho (up, down):  1.130E-05 0.000E+00

     total cpu time spent up to now is       24.1 secs

     total energy              =    -184.92750368 Ry
     estimated scf accuracy    <       0.00394861 Ry

     iteration #  6     ecut=   100.00 Ry     beta= 0.70
     Davidson diagonalization with overlap
     ethr =  1.51E-05,  avg # of iterations =  3.0

     negative rho (up, down):  5.127E-05 0.000E+00

     total cpu time spent up to now is       27.4 secs

     total energy              =    -184.92804539 Ry
     estimated scf accuracy    <       0.00160006 Ry

     iteration #  7     ecut=   100.00 Ry     beta= 0.70
     Davidson diagonalization with overlap
     ethr =  6.11E-06,  avg # of iterations =  2.0

     negative rho (up, down):  3.366E-05 0.000E+00

     total cpu time spent up to now is       30.3 secs

     total energy              =    -184.92804672 Ry
     estimated scf accuracy    <       0.00073193 Ry

     iteration #  8     ecut=   100.00 Ry     beta= 0.70
     Davidson diagonalization with overlap
     ethr =  2.80E-06,  avg # of iterations =  1.3

     negative rho (up, down):  5.102E-06 0.000E+00

     total cpu time spent up to now is       33.1 secs

     total energy              =    -184.92796948 Ry
     estimated scf accuracy    <       0.00034332 Ry

     iteration #  9     ecut=   100.00 Ry     beta= 0.70
     Davidson diagonalization with overlap
     ethr =  1.31E-06,  avg # of iterations =  2.7

     negative rho (up, down):  4.231E-07 0.000E+00

     total cpu time spent up to now is       36.2 secs

     total energy              =    -184.92801915 Ry
     estimated scf accuracy    <       0.00000196 Ry

     iteration # 10     ecut=   100.00 Ry     beta= 0.70
     Davidson diagonalization with overlap
     ethr =  7.49E-09,  avg # of iterations =  4.8

     negative rho (up, down):  1.292E-06 0.000E+00

     total cpu time spent up to now is       40.6 secs

     total energy              =    -184.92802270 Ry
     estimated scf accuracy    <       0.00000477 Ry

     iteration # 11     ecut=   100.00 Ry     beta= 0.70
     Davidson diagonalization with overlap
     ethr =  7.49E-09,  avg # of iterations =  2.0

     negative rho (up, down):  1.007E-07 0.000E+00

     total cpu time spent up to now is       43.7 secs

     total energy              =    -184.92802301 Ry
     estimated scf accuracy    <       0.00000025 Ry

     iteration # 12     ecut=   100.00 Ry     beta= 0.70
     Davidson diagonalization with overlap
     ethr =  9.51E-10,  avg # of iterations =  4.0

     total cpu time spent up to now is       47.2 secs

     total energy              =    -184.92802310 Ry
     estimated scf accuracy    <       0.00000005 Ry

     iteration # 13     ecut=   100.00 Ry     beta= 0.70
     Davidson diagonalization with overlap
     ethr =  2.08E-10,  avg # of iterations =  2.6

     total cpu time spent up to now is       50.4 secs

     total energy              =    -184.92802311 Ry
     estimated scf accuracy    <          4.6E-09 Ry

     iteration # 14     ecut=   100.00 Ry     beta= 0.70
     Davidson diagonalization with overlap
     ethr =  1.76E-11,  avg # of iterations =  2.1

     total cpu time spent up to now is       53.4 secs

     total energy              =    -184.92802311 Ry
     estimated scf accuracy    <          1.0E-09 Ry

     iteration # 15     ecut=   100.00 Ry     beta= 0.70
     Davidson diagonalization with overlap
     ethr =  3.92E-12,  avg # of iterations =  2.8

     total cpu time spent up to now is       56.6 secs

     total energy              =    -184.92802311 Ry
     estimated scf accuracy    <          6.0E-11 Ry

     iteration # 16     ecut=   100.00 Ry     beta= 0.70
     Davidson diagonalization with overlap
     ethr =  2.30E-13,  avg # of iterations =  2.8

     total cpu time spent up to now is       59.9 secs

     total energy              =    -184.92802311 Ry
     estimated scf accuracy    <          1.1E-12 Ry

     iteration # 17     ecut=   100.00 Ry     beta= 0.70
     Davidson diagonalization with overlap
     ethr =  1.00E-13,  avg # of iterations =  1.0

     total cpu time spent up to now is       62.6 secs

     End of self-consistent calculation

          k = 0.0000 0.0000 0.0000 ( 15995 PWs)   bands (ev):

   -64.4227 -38.6272 -38.4165 -38.4165 -17.7737 -16.5130  -9.3609  -6.2269
    -6.2269  -5.7365  -5.1443  -5.1443  -3.8370  -0.9259  -0.9259  -0.7027
    -0.7027

          k = 0.0000 0.0481 0.0000 ( 16053 PWs)   bands (ev):

   -64.4220 -38.6260 -38.4229 -38.4179 -17.7481 -16.5020  -9.3311  -6.2881
    -6.2004  -5.8470  -5.1874  -5.0719  -3.8417  -0.9738  -0.8789  -0.8124
    -0.7322

          k = 0.0000 0.0962 0.0000 ( 16041 PWs)   bands (ev):

   -64.4202 -38.6223 -38.4417 -38.4222 -17.6722 -16.4695  -9.2446  -6.4597
    -6.1225  -6.0843  -5.3080  -4.9561  -3.8622  -1.0817  -1.0604  -0.8149
    -0.7482

          k = 0.0000 0.1443 0.0000 ( 16007 PWs)   bands (ev):

   -64.4172 -38.6164 -38.4715 -38.4290 -17.5491 -16.4167  -9.1106  -6.7108
    -6.3659  -5.9974  -5.4848  -4.8952  -3.9169  -1.3340  -1.1731  -0.9354
    -0.5592

          k = 0.0000 0.1925 0.0000 ( 15997 PWs)   bands (ev):

   -64.4134 -38.6088 -38.5102 -38.4379 -17.3835 -16.3458  -8.9483  -7.0008
    -6.6668  -5.8325  -5.6934  -4.9212  -4.0285  -1.5532  -1.1831  -1.0734
    -0.3425

          k = 0.0000 0.2406 0.0000 ( 15985 PWs)   bands (ev):

   -64.4089 -38.5999 -38.5549 -38.4482 -17.1827 -16.2601  -8.7934  -7.2825
    -6.9780  -5.9123  -5.6387  -5.0251  -4.2022  -1.6683  -1.2082  -1.0889
    -0.1249

          k = 0.0000 0.2887 0.0000 ( 15975 PWs)   bands (ev):

   -64.4041 -38.6025 -38.5903 -38.4592 -16.9559 -16.1639  -8.7070  -7.4991
    -7.2927  -6.1251  -5.4299  -5.1724  -4.4038  -1.6711  -1.3218  -0.9074
     0.0736

          k = 0.0000 0.3368 0.0000 ( 15941 PWs)   bands (ev):

   -64.3993 -38.6498 -38.5807 -38.4702 -16.7153 -16.0629  -8.7515  -7.6070
    -7.6009  -6.3199  -5.3264  -5.2226  -4.5693  -1.5850  -1.4006  -0.6751
     0.2411

          k = 0.0000 0.3849 0.0000 ( 15944 PWs)   bands (ev):

   -64.3949 -38.6935 -38.5717 -38.4804 -16.4759 -15.9638  -8.9101  -7.8883
    -7.6426  -6.4882  -5.4625  -5.0339  -4.6401  -1.4419  -1.4380  -0.4326
     0.3728

          k = 0.0000 0.4330 0.0000 ( 15928 PWs)   bands (ev):

   -64.3910 -38.7309 -38.5640 -38.4892 -16.2560 -15.8744  -9.1074  -8.1374
    -7.6767  -6.6242  -5.5690  -4.8785  -4.6006  -1.4369  -1.2703  -0.2169
     0.4694

          k = 0.0000 0.4811 0.0000 ( 15916 PWs)   bands (ev):

   -64.3880 -38.7593 -38.5581 -38.4959 -16.0763 -15.8028  -9.2845  -8.3307
    -7.7270  -6.7239  -5.6434  -4.7655  -4.4909  -1.4111  -1.0979  -0.0555
     0.5341

          k = 0.0000 0.5292 0.0000 ( 15920 PWs)   bands (ev):

   -64.3862 -38.7772 -38.5544 -38.5001 -15.9577 -15.7563  -9.4055  -8.4534
    -7.7725  -6.7847  -5.6867  -4.6980  -4.3824  -1.3821  -0.9604   0.0401
     0.5710

          k = 0.0000-0.5774 0.0000 ( 15930 PWs)   bands (ev):

   -64.3856 -38.7833 -38.5531 -38.5015 -15.9161 -15.7401  -9.4483  -8.4954
    -7.7905  -6.8051  -5.7008  -4.6757  -4.3380  -1.3697  -0.9057   0.0711
     0.5829

          k = 0.0417 0.0722 0.0000 ( 16025 PWs)   bands (ev):

   -64.4208 -38.6235 -38.4354 -38.4209 -17.6974 -16.4803  -9.2729  -6.4041
    -6.1486  -6.0127  -5.2787  -4.9761  -3.8543  -1.0544  -0.9859  -0.7905
    -0.7875

          k = 0.0417 0.1203 0.0000 ( 16007 PWs)   bands (ev):

   -64.4184 -38.6188 -38.4595 -38.4267 -17.5978 -16.4376  -9.1623  -6.6139
    -6.2550  -6.0485  -5.4501  -4.8798  -3.8917  -1.2365  -1.1606  -0.8963
    -0.6222

          k = 0.0417 0.1684 0.0000 ( 15996 PWs)   bands (ev):

   -64.4150 -38.6120 -38.4934 -38.4348 -17.4534 -16.3757  -9.0128  -6.8820
    -6.5295  -5.9066  -5.6690  -4.8489  -3.9751  -1.4763  -1.2188  -1.0275
    -0.4142

          k = 0.0417 0.2165 0.0000 ( 15986 PWs)   bands (ev):

   -64.4109 -38.6037 -38.5347 -38.4448 -17.2701 -16.2973  -8.8506  -7.1652
    -6.8230  -5.9039  -5.7336  -4.9020  -4.1194  -1.6416  -1.1826  -1.1600
    -0.1932

          k = 0.0417 0.2646 0.0000 ( 15967 PWs)   bands (ev):

   -64.4062 -38.5945 -38.5804 -38.4560 -17.0561 -16.2061  -8.7236  -7.4119
    -7.1304  -6.1290  -5.5445  -5.0228  -4.3088  -1.7048  -1.2710  -1.0477
     0.0167

          k = 0.0417 0.3127 0.0000 ( 15962 PWs)   bands (ev):

   -64.4014 -38.6273 -38.5849 -38.4674 -16.8220 -16.1071  -8.7008  -7.5654
    -7.4436  -6.3276  -5.3599  -5.1775  -4.4869  -1.6783  -1.3405  -0.8406
     0.1987

          k = 0.0417 0.3608 0.0000 ( 15935 PWs)   bands (ev):

   -64.3968 -38.6724 -38.5756 -38.4785 -16.5812 -16.0065  -8.8103  -7.7480
    -7.6200  -6.4924  -5.3344  -5.2029  -4.5820  -1.5990  -1.3503  -0.5987
     0.3421

          k = 0.0417 0.4090 0.0000 ( 15925 PWs)   bands (ev):

   -64.3926 -38.7125 -38.5673 -38.4884 -16.3505 -15.9115  -8.9938  -8.0244
    -7.6459  -6.6222  -5.4722  -5.0808  -4.5599  -1.5127  -1.2839  -0.3581
     0.4405

          k = 0.0417 0.4571 0.0000 ( 15918 PWs)   bands (ev):

   -64.3892 -38.7451 -38.5604 -38.4965 -16.1494 -15.8303  -9.1821  -8.2530
    -7.6896  -6.7180  -5.5797  -4.9781  -4.4587  -1.4447  -1.1535  -0.1483
     0.4925

          k = 0.0417 0.5052 0.0000 ( 15917 PWs)   bands (ev):

   -64.3868 -38.7680 -38.5556 -38.5022 -15.9990 -15.7705  -9.3307  -8.4163
    -7.7421  -6.7812  -5.6522  -4.8966  -4.3407  -1.3957  -1.0086   0.0098
     0.5052

          k = 0.0417 0.5533 0.0000 ( 15918 PWs)   bands (ev):

   -64.3856 -38.7798 -38.5531 -38.5051 -15.9180 -15.7388  -9.4123  -8.5014
    -7.7770  -6.8126  -5.6885  -4.8522  -4.2621  -1.3695  -0.9094   0.0986
     0.4984

          k = 0.0833 0.1443 0.0000 ( 16015 PWs)   bands (ev):

   -64.4156 -38.6131 -38.4873 -38.4342 -17.4770 -16.3858  -9.0352  -6.8382
    -6.4691  -5.9345  -5.6936  -4.8006  -3.9578  -1.4430  -1.2428  -1.0179
    -0.4310

          k = 0.0833 0.1925 0.0000 ( 15995 PWs)   bands (ev):

   -64.4119 -38.6057 -38.5231 -38.4442 -17.3147 -16.3162  -8.8819  -7.0951
    -6.7071  -5.9790  -5.7919  -4.7795  -4.0756  -1.6216  -1.2663  -1.1439
    -0.2116

          k = 0.0833 0.2406 0.0000 ( 15975 PWs)   bands (ev):

   -64.4075 -38.5971 -38.5644 -38.4560 -17.1179 -16.2320  -8.7385  -7.3387
    -6.9736  -6.2511  -5.6394  -4.8369  -4.2402  -1.7340  -1.2412  -1.1979
     0.0064

          k = 0.0833 0.2887 0.0000 ( 15957 PWs)   bands (ev):

   -64.4029 -38.6084 -38.5878 -38.4686 -16.8959 -16.1374  -8.6651  -7.5132
    -7.2747  -6.4697  -5.5041  -4.9605  -4.4077  -1.7696  -1.2879  -1.0414
     0.2013

          k = 0.0833 0.3368 0.0000 ( 15958 PWs)   bands (ev):

   -64.3983 -38.6521 -38.5786 -38.4812 -16.6606 -16.0379  -8.7154  -7.5950
    -7.5842  -6.6247  -5.4138  -5.1215  -4.5072  -1.7362  -1.2800  -0.8246
     0.3566

          k = 0.0833 0.3849 0.0000 ( 15936 PWs)   bands (ev):

   -64.3939 -38.6925 -38.5699 -38.4929 -16.4269 -15.9403  -8.8644  -7.9047
    -7.6003  -6.7262  -5.3639  -5.2910  -4.4989  -1.6472  -1.2291  -0.5811
     0.4587

          k = 0.0833 0.4330 0.0000 ( 15917 PWs)   bands (ev):

   -64.3902 -38.7270 -38.5624 -38.5029 -16.2127 -15.8520  -9.0431  -8.1753
    -7.6306  -6.7879  -5.4462  -5.3143  -4.4098  -1.5291  -1.1466  -0.3387
     0.4978

          k = 0.0833 0.4811 0.0000 ( 15928 PWs)   bands (ev):

   -64.3874 -38.7534 -38.5567 -38.5106 -16.0382 -15.7812  -9.2016  -8.3848
    -7.6853  -6.8213  -5.5702  -5.2551  -4.2883  -1.4301  -1.0320  -0.1161
     0.4722

          k = 0.0833 0.5292 0.0000 ( 15912 PWs)   bands (ev):

   -64.3856 -38.7699 -38.5531 -38.5155 -15.9233 -15.7352  -9.3093  -8.5172
    -7.7364  -6.8363  -5.6503  -5.2081  -4.1826  -1.3817  -0.9102   0.0767
     0.3911

          k = 0.0833 0.5774 0.0000 ( 15928 PWs)   bands (ev):

   -64.3849 -38.7756 -38.5519 -38.5171 -15.8830 -15.7193  -9.3474  -8.5624
    -7.7567  -6.8403  -5.6781  -5.1908  -4.1401  -1.3699  -0.8551   0.2003
     0.3031

          k = 0.1250 0.2165 0.0000 ( 15989 PWs)   bands (ev):

   -64.4080 -38.5980 -38.5584 -38.4565 -17.1388 -16.2407  -8.7442  -7.3101
    -6.8948  -6.3270  -5.6758  -4.7575  -4.2156  -1.7444  -1.2626  -1.2333
     0.0071

          k = 0.1250 0.2646 0.0000 ( 15967 PWs)   bands (ev):

   -64.4037 -38.5972 -38.5894 -38.4706 -16.9337 -16.1528  -8.6470  -7.4765
    -7.1287  -6.6214  -5.5917  -4.8113  -4.3628  -1.8216  -1.2639  -1.1785
     0.2119

          k = 0.1250 0.3127 0.0000 ( 15951 PWs)   bands (ev):

   -64.3992 -38.6368 -38.5804 -38.4855 -16.7099 -16.0572  -8.6473  -7.5493
    -7.4412  -6.7955  -5.5736  -4.9341  -4.4580  -1.8296  -1.2393  -1.0185
     0.3818

          k = 0.1250 0.3608 0.0000 ( 15960 PWs)   bands (ev):

   -64.3949 -38.6746 -38.5718 -38.4999 -16.4804 -15.9598  -8.7491  -7.7823
    -7.5497  -6.8761  -5.6132  -5.1009  -4.4628  -1.7583  -1.1830  -0.8086
     0.5013

          k = 0.1250 0.4090 0.0000 ( 15947 PWs)   bands (ev):

   -64.3910 -38.7083 -38.5640 -38.5129 -16.2615 -15.8676  -8.8977  -8.0971
    -7.5549  -6.9023  -5.6514  -5.2829  -4.3909  -1.6257  -1.1143  -0.5793
     0.5590

          k = 0.1250 0.4571 0.0000 ( 15930 PWs)   bands (ev):

   -64.3878 -38.7357 -38.5576 -38.5235 -16.0717 -15.7885  -9.0432  -8.3551
    -7.6020  -6.8959  -5.6525  -5.4536  -4.2738  -1.4897  -1.0249  -0.3562
     0.5525

          k = 0.1250 0.5052 0.0000 ( 15927 PWs)   bands (ev):

   -64.3856 -38.7549 -38.5531 -38.5311 -15.9304 -15.7303  -9.1556  -8.5374
    -7.6679  -6.8746  -5.6317  -5.5883  -4.1486  -1.4208  -0.8959  -0.1609
     0.4948

          k = 0.1250 0.5533 0.0000 ( 15918 PWs)   bands (ev):

   -64.3844 -38.7649 -38.5508 -38.5349 -15.8546 -15.6993  -9.2167  -8.6316
    -7.7128  -6.8568  -5.6639  -5.6150  -4.0648  -1.4100  -0.7868  -0.0274
     0.4261

          k = 0.1667 0.2887 0.0000 ( 15971 PWs)   bands (ev):

   -64.3995 -38.6309 -38.5810 -38.4876 -16.7265 -16.0636  -8.6224  -7.5343
    -7.3579  -6.8887  -5.6332  -4.8601  -4.4412  -1.8629  -1.2264  -1.0950
     0.3926

          k = 0.1667 0.3368 0.0000 ( 15955 PWs)   bands (ev):

   -64.3953 -38.6636 -38.5727 -38.5053 -16.5080 -15.9696  -8.6803  -7.6896
    -7.5134  -6.9929  -5.7621  -4.9809  -4.4472  -1.8194  -1.1593  -0.9507
     0.5314

          k = 0.1667 0.3849 0.0000 ( 15934 PWs)   bands (ev):

   -64.3915 -38.6934 -38.5650 -38.5224 -16.2922 -15.8769  -8.7849  -8.0315
    -7.4798  -7.0069  -5.9135  -5.1506  -4.3882  -1.6953  -1.0883  -0.7703
     0.6196

          k = 0.1667 0.4330 0.0000 ( 15921 PWs)   bands (ev):

   -64.3881 -38.7185 -38.5583 -38.5374 -16.0960 -15.7929  -8.8942  -8.3287
    -7.4976  -6.9744  -6.0189  -5.3395  -4.2800  -1.5489  -1.0070  -0.5845
     0.6567

          k = 0.1667 0.4811 0.0000 ( 15944 PWs)   bands (ev):

   -64.3856 -38.7375 -38.5532 -38.5491 -15.9375 -15.7254  -8.9830  -8.5561
    -7.5688  -6.9183  -6.0627  -5.5161  -4.1438  -1.4747  -0.8724  -0.4212
     0.6523

          k = 0.1667 0.5292 0.0000 ( 15926 PWs)   bands (ev):

   -64.3839 -38.7494 -38.5565 -38.5499 -15.8337 -15.6813  -9.0395  -8.6987
    -7.6438  -6.8639  -6.0721  -5.6464  -4.0225  -1.4836  -0.7143  -0.3061
     0.6290

          k = 0.1667 0.5774 0.0000 ( 15928 PWs)   bands (ev):

   -64.3834 -38.7534 -38.5590 -38.5488 -15.7975 -15.6660  -9.0587  -8.7472
    -7.6747  -6.8407  -6.0725  -5.6956  -3.9727  -1.4995  -0.6428  -0.2637
     0.6162

          k = 0.2083 0.3608 0.0000 ( 15927 PWs)   bands (ev):

   -64.3916 -38.6875 -38.5653 -38.5265 -16.3027 -15.8800  -8.7421  -8.0043
    -7.4450  -7.0499  -6.0165  -5.0998  -4.3890  -1.7202  -1.0789  -0.8423
     0.6435

          k = 0.2083 0.4090 0.0000 ( 15931 PWs)   bands (ev):

   -64.3883 -38.7072 -38.5586 -38.5470 -16.1088 -15.7950  -8.8020  -8.3121
    -7.4061  -7.0238  -6.2613  -5.2690  -4.2884  -1.5840  -0.9948  -0.7179
     0.7221

          k = 0.2083 0.4571 0.0000 ( 15949 PWs)   bands (ev):

   -64.3856 -38.7223 -38.5648 -38.5532 -15.9426 -15.7217  -8.8413  -8.5690
    -7.4442  -6.9528  -6.4296  -5.4573  -4.1494  -1.5188  -0.8532  -0.6050
     0.7740

          k = 0.2083 0.5052 0.0000 ( 15946 PWs)   bands (ev):

   -64.3836 -38.7323 -38.5780 -38.5493 -15.8202 -15.6676  -8.8562  -8.7516
    -7.5417  -6.8667  -6.5075  -5.6280  -4.0000  -1.5587  -0.6572  -0.5227
     0.8046

          k = 0.2083 0.5533 0.0000 ( 15938 PWs)   bands (ev):

   -64.3826 -38.7372 -38.5850 -38.5473 -15.7551 -15.6388  -8.8569  -8.8462
    -7.6209  -6.8038  -6.5321  -5.7352  -3.8973  -1.6182  -0.5128  -0.4801
     0.8185

          k = 0.2500 0.4330 0.0000 ( 15966 PWs)   bands (ev):

   -64.3856 -38.7159 -38.5714 -38.5532 -15.9445 -15.7204  -8.7855  -8.5736
    -7.3673  -6.9659  -6.5964  -5.4346  -4.1528  -1.5355  -0.8460  -0.6708
     0.8191

          k = 0.2500 0.4811 0.0000 ( 15945 PWs)   bands (ev):

   -64.3835 -38.7197 -38.5928 -38.5490 -15.8136 -15.6602  -8.7806  -8.7331
    -7.4137  -6.8679  -6.8362  -5.6155  -3.9900  -1.6048  -0.6403  -0.6267
     0.9063

          k = 0.2500 0.5292 0.0000 ( 15948 PWs)   bands (ev):

   -64.3822 -38.7205 -38.6080 -38.5464 -15.7291 -15.6210  -8.9125  -8.6642
    -7.5396  -6.9347  -6.7685  -5.7679  -3.8433  -1.7174  -0.6258  -0.4257
     0.9682

          k = 0.2500 0.5774 0.0000 ( 15936 PWs)   bands (ev):

   -64.3817 -38.7203 -38.6135 -38.5455 -15.6998 -15.6073  -8.9577  -8.6289
    -7.6094  -6.9550  -6.7231  -5.8315  -3.7815  -1.7715  -0.6218  -0.3434
     0.9906

          k = 0.2917 0.5052 0.0000 ( 15932 PWs)   bands (ev):

   -64.3820 -38.7122 -38.6183 -38.5460 -15.7203 -15.6147  -8.9358  -8.5780
    -7.4589  -7.1455  -6.7540  -5.7807  -3.8230  -1.7561  -0.6768  -0.3955
     1.0233

          k = 0.2917 0.5533 0.0000 ( 15934 PWs)   bands (ev):

   -64.3812 -38.7041 -38.6357 -38.5445 -15.6713 -15.5904  -9.0175  -8.4284
    -7.6224  -7.2381  -6.6623  -5.8992  -3.7062  -1.8751  -0.6995  -0.2480
     1.0917

          k = 0.3333 0.5774 0.0000 ( 15894 PWs)   bands (ev):

   -64.3809 -38.6931 -38.6507 -38.5439 -15.6516 -15.5798  -9.0539  -8.2744
    -7.7496  -7.3167  -6.6112  -5.9587  -3.6485  -1.9429  -0.7259  -0.1809
     1.1375

     the Fermi energy is    -1.8466 ev

!    total energy              =    -184.92802311 Ry
     estimated scf accuracy    <          7.6E-13 Ry
     smearing contrib. (-TS)   =      -0.00199318 Ry
     internal energy E=F+TS    =    -184.92602993 Ry

     The total energy is F=E-TS. E is the sum of the following terms:
     one-electron contribution =   -1383.08068479 Ry
     hartree contribution      =     689.36491517 Ry
     xc contribution           =     -33.43710273 Ry
     ewald contribution        =     542.22684241 Ry

     convergence has been achieved in  17 iterations

     Writing all to output data dir ./mos2.save/ :
     XML data file, charge density, pseudopotentials, collected wavefunctions
 
     init_run     :      1.39s CPU      3.49s WALL (       1 calls)
     electrons    :     56.64s CPU     57.71s WALL (       1 calls)

     Called by init_run:
     wfcinit      :      0.87s CPU      1.86s WALL (       1 calls)
     potinit      :      0.28s CPU      0.34s WALL (       1 calls)
     hinit0       :      0.17s CPU      0.65s WALL (       1 calls)

     Called by electrons:
     c_bands      :     41.94s CPU     42.42s WALL (      17 calls)
     sum_band     :      9.05s CPU      9.17s WALL (      17 calls)
     v_of_rho     :      3.97s CPU      4.06s WALL (      18 calls)
     mix_rho      :      0.55s CPU      0.57s WALL (      17 calls)

     Called by c_bands:
     init_us_2    :      0.72s CPU      0.74s WALL (      70 calls)
     init_us_2:cp :      0.72s CPU      0.73s WALL (      70 calls)
     cegterg      :     36.00s CPU     36.44s WALL (      34 calls)

     Called by *egterg:
     cdiaghg      :      0.06s CPU      0.08s WALL (     135 calls)
     h_psi        :     33.35s CPU     33.88s WALL (     137 calls)
     g_psi        :      0.08s CPU      0.08s WALL (     101 calls)

     Called by h_psi:
     h_psi:calbec :      1.28s CPU      1.29s WALL (     137 calls)
     vloc_psi     :     30.11s CPU     30.48s WALL (     137 calls)
     add_vuspsi   :      1.68s CPU      1.69s WALL (     137 calls)

     General routines
     calbec       :      1.28s CPU      1.29s WALL (     137 calls)
     fft          :      1.48s CPU      1.53s WALL (     180 calls)
     ffts         :      0.12s CPU      0.12s WALL (      17 calls)
     fftw         :     26.41s CPU     26.72s WALL (    3604 calls)
 
     Parallel routines
 
     PWSCF        :     58.17s CPU   1m 2.99s WALL

 
   This run was terminated on:  16:36: 8  27Apr2024            

=------------------------------------------------------------------------------=
   JOB DONE.
=------------------------------------------------------------------------------=
