
     Program PWSCF v.7.3 starts on 27Apr2024 at 16:35:45 

     This program is part of the open-source Quantum ESPRESSO suite
     for quantum simulation of materials; please cite
         "P. Giannozzi et al., J. Phys.:Condens. Matter 21 395502 (2009);
         "P. Giannozzi et al., J. Phys.:Condens. Matter 29 465901 (2017);
         "P. Giannozzi et al., J. Chem. Phys. 152 154105 (2020);
          URL http://www.quantum-espresso.org", 
     in publications or presentations arising from this work. More details at
     http://www.quantum-espresso.org/quote

     Parallel version (MPI), running on    48 processors

     MPI processes distributed on     1 nodes
     254484 MiB available memory on the printing compute node when the environment starts
 
     Reading input from sc.in

     Current dimensions of program PWSCF are:
     Max number of different atomic species (ntypx) = 10
     Max number of k-points (npk) =  40000
     Max angular momentum in pseudopotentials (lmaxx) =  4
 
     K-points division:     npool     =      48
     Subspace diagonalization in iterative solution of the eigenvalue problem:
     a serial algorithm will be used

 
     G-vector sticks info
     --------------------
     sticks:   dense  smooth     PW     G-vecs:    dense   smooth      PW
     Sum        1003    1003    283               127553   127553   19429
 
     Using Slab Decomposition
 


     bravais-lattice index     =            4
     lattice parameter (alat)  =       6.0199  a.u.
     unit-cell volume          =     944.6376 (a.u.)^3
     number of atoms/cell      =            3
     number of atomic types    =            2
     number of electrons       =        26.19
     number of Kohn-Sham states=           17
     kinetic-energy cutoff     =     100.0000  Ry
     charge density cutoff     =     400.0000  Ry
     scf convergence threshold =      1.0E-12
     mixing beta               =       0.7000
     number of iterations used =            8  plain     mixing
     Exchange-correlation= PBE
                           (   1   4   3   4   0   0   0)

     celldm(1)=   6.019885  celldm(2)=   0.000000  celldm(3)=   5.000000
     celldm(4)=   0.000000  celldm(5)=   0.000000  celldm(6)=   0.000000

     crystal axes: (cart. coord. in units of alat)
               a(1) = (   1.000000   0.000000   0.000000 )  
               a(2) = (  -0.500000   0.866025   0.000000 )  
               a(3) = (   0.000000   0.000000   5.000000 )  

     reciprocal axes: (cart. coord. in units 2 pi/alat)
               b(1) = (  1.000000  0.577350  0.000000 )  
               b(2) = (  0.000000  1.154701  0.000000 )  
               b(3) = (  0.000000  0.000000  0.200000 )  


     PseudoPot. # 1 for Mo read from file:
     ../pseudo/Mo.UPF
     MD5 check sum: 4e1c3579de4f68baf863f15f5be96aa1
     Pseudo is Norm-conserving + core correction, Zval = 14.0
     Generated using ONCVPSP code by D. R. Hamann
     Using radial grid of 1640 points,  6 beta functions with: 
                l(1) =   0
                l(2) =   0
                l(3) =   1
                l(4) =   1
                l(5) =   2
                l(6) =   2

     PseudoPot. # 2 for S  read from file:
     ../pseudo/S.UPF
     MD5 check sum: a7319d53700e7dada26ada44d0048388
     Pseudo is Norm-conserving + core correction, Zval =  6.0
     Generated using ONCVPSP code by D. R. Hamann
     Using radial grid of 1146 points,  6 beta functions with: 
                l(1) =   0
                l(2) =   0
                l(3) =   1
                l(4) =   1
                l(5) =   2
                l(6) =   2

     atomic species   valence    mass     pseudopotential
     Mo               14.00    95.95000     Mo( 1.00)
     S                 6.00    32.06000     S ( 1.00)

     12 Sym. Ops. (no inversion) found



   Cartesian axes

     site n.     atom                  positions (alat units)
         1        Mo     tau(   1) = (   0.0000000   0.0000000   0.0000000  )
         2        S      tau(   2) = (   0.5000000   0.2886750  -0.4913414  )
         3        S      tau(   3) = (   0.5000000   0.2886750   0.4913414  )

     number of k points=    61  Fermi-Dirac smearing, width (Ry)=  0.0050
                       cart. coord. in units 2pi/alat
        k(    1) = (   0.0000000   0.0000000   0.0000000), wk =   0.0034722
        k(    2) = (   0.0000000   0.0481125   0.0000000), wk =   0.0208333
        k(    3) = (   0.0000000   0.0962250   0.0000000), wk =   0.0208333
        k(    4) = (   0.0000000   0.1443376   0.0000000), wk =   0.0208333
        k(    5) = (   0.0000000   0.1924501   0.0000000), wk =   0.0208333
        k(    6) = (   0.0000000   0.2405626   0.0000000), wk =   0.0208333
        k(    7) = (   0.0000000   0.2886751   0.0000000), wk =   0.0208333
        k(    8) = (   0.0000000   0.3367877   0.0000000), wk =   0.0208333
        k(    9) = (   0.0000000   0.3849002   0.0000000), wk =   0.0208333
        k(   10) = (   0.0000000   0.4330127   0.0000000), wk =   0.0208333
        k(   11) = (   0.0000000   0.4811252   0.0000000), wk =   0.0208333
        k(   12) = (   0.0000000   0.5292377   0.0000000), wk =   0.0208333
        k(   13) = (   0.0000000  -0.5773503   0.0000000), wk =   0.0104167
        k(   14) = (   0.0416667   0.0721688   0.0000000), wk =   0.0208333
        k(   15) = (   0.0416667   0.1202813   0.0000000), wk =   0.0416667
        k(   16) = (   0.0416667   0.1683938   0.0000000), wk =   0.0416667
        k(   17) = (   0.0416667   0.2165064   0.0000000), wk =   0.0416667
        k(   18) = (   0.0416667   0.2646189   0.0000000), wk =   0.0416667
        k(   19) = (   0.0416667   0.3127314   0.0000000), wk =   0.0416667
        k(   20) = (   0.0416667   0.3608439   0.0000000), wk =   0.0416667
        k(   21) = (   0.0416667   0.4089564   0.0000000), wk =   0.0416667
        k(   22) = (   0.0416667   0.4570690   0.0000000), wk =   0.0416667
        k(   23) = (   0.0416667   0.5051815   0.0000000), wk =   0.0416667
        k(   24) = (   0.0416667   0.5532940   0.0000000), wk =   0.0416667
        k(   25) = (   0.0833333   0.1443376   0.0000000), wk =   0.0208333
        k(   26) = (   0.0833333   0.1924501   0.0000000), wk =   0.0416667
        k(   27) = (   0.0833333   0.2405626   0.0000000), wk =   0.0416667
        k(   28) = (   0.0833333   0.2886751   0.0000000), wk =   0.0416667
        k(   29) = (   0.0833333   0.3367877   0.0000000), wk =   0.0416667
        k(   30) = (   0.0833333   0.3849002   0.0000000), wk =   0.0416667
        k(   31) = (   0.0833333   0.4330127   0.0000000), wk =   0.0416667
        k(   32) = (   0.0833333   0.4811252   0.0000000), wk =   0.0416667
        k(   33) = (   0.0833333   0.5292377   0.0000000), wk =   0.0416667
        k(   34) = (   0.0833333   0.5773503   0.0000000), wk =   0.0208333
        k(   35) = (   0.1250000   0.2165064   0.0000000), wk =   0.0208333
        k(   36) = (   0.1250000   0.2646189   0.0000000), wk =   0.0416667
        k(   37) = (   0.1250000   0.3127314   0.0000000), wk =   0.0416667
        k(   38) = (   0.1250000   0.3608439   0.0000000), wk =   0.0416667
        k(   39) = (   0.1250000   0.4089564   0.0000000), wk =   0.0416667
        k(   40) = (   0.1250000   0.4570690   0.0000000), wk =   0.0416667
        k(   41) = (   0.1250000   0.5051815   0.0000000), wk =   0.0416667
        k(   42) = (   0.1250000   0.5532940   0.0000000), wk =   0.0416667
        k(   43) = (   0.1666667   0.2886751   0.0000000), wk =   0.0208333
        k(   44) = (   0.1666667   0.3367877   0.0000000), wk =   0.0416667
        k(   45) = (   0.1666667   0.3849002   0.0000000), wk =   0.0416667
        k(   46) = (   0.1666667   0.4330127   0.0000000), wk =   0.0416667
        k(   47) = (   0.1666667   0.4811252   0.0000000), wk =   0.0416667
        k(   48) = (   0.1666667   0.5292377   0.0000000), wk =   0.0416667
        k(   49) = (   0.1666667   0.5773503   0.0000000), wk =   0.0208333
        k(   50) = (   0.2083333   0.3608439   0.0000000), wk =   0.0208333
        k(   51) = (   0.2083333   0.4089564   0.0000000), wk =   0.0416667
        k(   52) = (   0.2083333   0.4570690   0.0000000), wk =   0.0416667
        k(   53) = (   0.2083333   0.5051815   0.0000000), wk =   0.0416667
        k(   54) = (   0.2083333   0.5532940   0.0000000), wk =   0.0416667
        k(   55) = (   0.2500000   0.4330127   0.0000000), wk =   0.0208333
        k(   56) = (   0.2500000   0.4811252   0.0000000), wk =   0.0416667
        k(   57) = (   0.2500000   0.5292377   0.0000000), wk =   0.0416667
        k(   58) = (   0.2500000   0.5773503   0.0000000), wk =   0.0208333
        k(   59) = (   0.2916667   0.5051815   0.0000000), wk =   0.0208333
        k(   60) = (   0.2916667   0.5532940   0.0000000), wk =   0.0416667
        k(   61) = (   0.3333333   0.5773503   0.0000000), wk =   0.0069444

     Dense  grid:   127553 G-vectors     FFT dimensions: (  40,  40, 192)

     Estimated max dynamical RAM per process >     123.41 MB

     Estimated total dynamical RAM >       4.36 GB
 ----2D----2D----2D----2D----2D----2D----2D----2D----2D----2D----2D----2D
  The code is running with the 2D cutoff
  Please refer to:
  Sohier, T., Calandra, M., & Mauri, F. (2017), 
  Density functional perturbation theory for gated two-dimensional heterostructu
 res:
  Theoretical developments and application to flexural phonons in graphene.
  Physical Review B, 96(7), 75448. https://doi.org/10.1103/PhysRevB.96.075448
 ----2D----2D----2D----2D----2D----2D----2D----2D----2D----2D----2D----2D

     Initial potential from superposition of free atoms

     starting charge      25.9985, renormalised to      26.1900

     negative rho (up, down):  7.085E-06 0.000E+00
     Starting wfcs are   18 randomized atomic wfcs

     total cpu time spent up to now is        2.2 secs

     Self-consistent Calculation

     iteration #  1     ecut=   100.00 Ry     beta= 0.70
     Davidson diagonalization with overlap
     ethr =  1.00E-02,  avg # of iterations =  5.2

     total cpu time spent up to now is        5.9 secs

     total energy              =    -183.99077248 Ry
     estimated scf accuracy    <       1.37518545 Ry

     iteration #  2     ecut=   100.00 Ry     beta= 0.70
     Davidson diagonalization with overlap
     ethr =  5.25E-03,  avg # of iterations =  4.6

     total cpu time spent up to now is       10.3 secs

     total energy              =    -182.86687112 Ry
     estimated scf accuracy    <      18.26092176 Ry

     iteration #  3     ecut=   100.00 Ry     beta= 0.70
     Davidson diagonalization with overlap
     ethr =  5.25E-03,  avg # of iterations =  2.7

     total cpu time spent up to now is       13.7 secs

     total energy              =    -184.91318911 Ry
     estimated scf accuracy    <       0.02928395 Ry

     iteration #  4     ecut=   100.00 Ry     beta= 0.70
     Davidson diagonalization with overlap
     ethr =  1.12E-04,  avg # of iterations =  5.2

     total cpu time spent up to now is       18.2 secs

     total energy              =    -184.92747288 Ry
     estimated scf accuracy    <       0.02993150 Ry

     iteration #  5     ecut=   100.00 Ry     beta= 0.70
     Davidson diagonalization with overlap
     ethr =  1.12E-04,  avg # of iterations =  2.0

     negative rho (up, down):  1.037E-04 0.000E+00

     total cpu time spent up to now is       21.1 secs

     total energy              =    -184.92906280 Ry
     estimated scf accuracy    <       0.00377584 Ry

     iteration #  6     ecut=   100.00 Ry     beta= 0.70
     Davidson diagonalization with overlap
     ethr =  1.44E-05,  avg # of iterations =  3.2

     negative rho (up, down):  1.009E-04 0.000E+00

     total cpu time spent up to now is       24.4 secs

     total energy              =    -184.92942993 Ry
     estimated scf accuracy    <       0.00426286 Ry

     iteration #  7     ecut=   100.00 Ry     beta= 0.70
     Davidson diagonalization with overlap
     ethr =  1.44E-05,  avg # of iterations =  1.2

     negative rho (up, down):  5.766E-05 0.000E+00

     total cpu time spent up to now is       27.2 secs

     total energy              =    -184.92933082 Ry
     estimated scf accuracy    <       0.00157104 Ry

     iteration #  8     ecut=   100.00 Ry     beta= 0.70
     Davidson diagonalization with overlap
     ethr =  6.00E-06,  avg # of iterations =  1.4

     total cpu time spent up to now is       30.0 secs

     total energy              =    -184.92919794 Ry
     estimated scf accuracy    <       0.00051949 Ry

     iteration #  9     ecut=   100.00 Ry     beta= 0.70
     Davidson diagonalization with overlap
     ethr =  1.98E-06,  avg # of iterations =  3.7

     negative rho (up, down):  1.075E-06 0.000E+00

     total cpu time spent up to now is       33.6 secs

     total energy              =    -184.92933895 Ry
     estimated scf accuracy    <       0.00008824 Ry

     iteration # 10     ecut=   100.00 Ry     beta= 0.70
     Davidson diagonalization with overlap
     ethr =  3.37E-07,  avg # of iterations =  2.0

     negative rho (up, down):  1.331E-06 0.000E+00

     total cpu time spent up to now is       36.5 secs

     total energy              =    -184.92934062 Ry
     estimated scf accuracy    <       0.00001156 Ry

     iteration # 11     ecut=   100.00 Ry     beta= 0.70
     Davidson diagonalization with overlap
     ethr =  4.41E-08,  avg # of iterations =  3.6

     negative rho (up, down):  1.056E-07 0.000E+00

     total cpu time spent up to now is       40.0 secs

     total energy              =    -184.92934453 Ry
     estimated scf accuracy    <       0.00000151 Ry

     iteration # 12     ecut=   100.00 Ry     beta= 0.70
     Davidson diagonalization with overlap
     ethr =  5.78E-09,  avg # of iterations =  1.8

     total cpu time spent up to now is       42.9 secs

     total energy              =    -184.92934451 Ry
     estimated scf accuracy    <       0.00000023 Ry

     iteration # 13     ecut=   100.00 Ry     beta= 0.70
     Davidson diagonalization with overlap
     ethr =  8.90E-10,  avg # of iterations =  4.5

     total cpu time spent up to now is       46.7 secs

     total energy              =    -184.92934460 Ry
     estimated scf accuracy    <       0.00000026 Ry

     iteration # 14     ecut=   100.00 Ry     beta= 0.70
     Davidson diagonalization with overlap
     ethr =  8.90E-10,  avg # of iterations =  2.1

     total cpu time spent up to now is       49.7 secs

     total energy              =    -184.92934463 Ry
     estimated scf accuracy    <          6.2E-09 Ry

     iteration # 15     ecut=   100.00 Ry     beta= 0.70
     Davidson diagonalization with overlap
     ethr =  2.35E-11,  avg # of iterations =  4.8

     total cpu time spent up to now is       54.0 secs

     total energy              =    -184.92934463 Ry
     estimated scf accuracy    <       0.00000003 Ry

     iteration # 16     ecut=   100.00 Ry     beta= 0.70
     Davidson diagonalization with overlap
     ethr =  2.35E-11,  avg # of iterations =  2.3

     total cpu time spent up to now is       57.1 secs

     total energy              =    -184.92934463 Ry
     estimated scf accuracy    <          6.0E-09 Ry

     iteration # 17     ecut=   100.00 Ry     beta= 0.70
     Davidson diagonalization with overlap
     ethr =  2.31E-11,  avg # of iterations =  2.4

     total cpu time spent up to now is       60.3 secs

     total energy              =    -184.92934463 Ry
     estimated scf accuracy    <          1.9E-10 Ry

     iteration # 18     ecut=   100.00 Ry     beta= 0.70
     Davidson diagonalization with overlap
     ethr =  7.40E-13,  avg # of iterations =  4.2

     total cpu time spent up to now is       64.2 secs

     total energy              =    -184.92934463 Ry
     estimated scf accuracy    <          6.1E-12 Ry

     iteration # 19     ecut=   100.00 Ry     beta= 0.70
     Davidson diagonalization with overlap
     ethr =  1.00E-13,  avg # of iterations =  1.4

     total cpu time spent up to now is       67.0 secs

     End of self-consistent calculation

          k = 0.0000 0.0000 0.0000 ( 15995 PWs)   bands (ev):

   -64.3214 -38.5274 -38.3148 -38.3148 -17.6774 -16.4178  -9.2682  -6.1275
    -6.1275  -5.6534  -5.0459  -5.0459  -3.7498  -0.8284  -0.8284  -0.6055
    -0.6055

          k = 0.0000 0.0481 0.0000 ( 16053 PWs)   bands (ev):

   -64.3208 -38.5262 -38.3213 -38.3163 -17.6518 -16.4068  -9.2384  -6.1888
    -6.1011  -5.7613  -5.0890  -4.9761  -3.7540  -0.8774  -0.7814  -0.7204
    -0.6350

          k = 0.0000 0.0962 0.0000 ( 16041 PWs)   bands (ev):

   -64.3189 -38.5225 -38.3401 -38.3206 -17.5759 -16.3743  -9.1518  -6.3605
    -6.0232  -5.9954  -5.2097  -4.8635  -3.7732  -0.9874  -0.9734  -0.7177
    -0.6507

          k = 0.0000 0.1443 0.0000 ( 16007 PWs)   bands (ev):

   -64.3160 -38.5166 -38.3699 -38.3274 -17.4527 -16.3214  -9.0179  -6.6119
    -6.2749  -5.8981  -5.3865  -4.8043  -3.8259  -1.2491  -1.0810  -0.8380
    -0.4618

          k = 0.0000 0.1925 0.0000 ( 15997 PWs)   bands (ev):

   -64.3121 -38.5090 -38.4086 -38.3362 -17.2872 -16.2504  -8.8555  -6.9023
    -6.5743  -5.7334  -5.5951  -4.8312  -3.9352  -1.4690  -1.0932  -0.9758
    -0.2451

          k = 0.0000 0.2406 0.0000 ( 15985 PWs)   bands (ev):

   -64.3077 -38.5001 -38.4533 -38.3465 -17.0864 -16.1646  -8.7002  -7.1847
    -6.8844  -5.8141  -5.5398  -4.9354  -4.1069  -1.5838  -1.1104  -1.0010
    -0.0277

          k = 0.0000 0.2887 0.0000 ( 15975 PWs)   bands (ev):

   -64.3029 -38.5009 -38.4905 -38.3575 -16.8596 -16.0683  -8.6128  -7.4026
    -7.1983  -6.0269  -5.3313  -5.0827  -4.3074  -1.5852  -1.2236  -0.8208
     0.1707

          k = 0.0000 0.3368 0.0000 ( 15941 PWs)   bands (ev):

   -64.2981 -38.5482 -38.4809 -38.3685 -16.6190 -15.9671  -8.6560  -7.5121
    -7.5060  -6.2217  -5.2365  -5.1243  -4.4723  -1.4970  -1.3019  -0.5889
     0.3380

          k = 0.0000 0.3849 0.0000 ( 15944 PWs)   bands (ev):

   -64.2936 -38.5919 -38.4719 -38.3788 -16.3795 -15.8679  -8.8138  -7.7931
    -7.5486  -6.3901  -5.3723  -4.9361  -4.5432  -1.3514  -1.3388  -0.3457
     0.4696

          k = 0.0000 0.4330 0.0000 ( 15928 PWs)   bands (ev):

   -64.2897 -38.6293 -38.4642 -38.3875 -16.1595 -15.7784  -9.0108  -8.0421
    -7.5828  -6.5261  -5.4787  -4.7811  -4.5039  -1.3371  -1.1774  -0.1287
     0.5661

          k = 0.0000 0.4811 0.0000 ( 15916 PWs)   bands (ev):

   -64.2868 -38.6578 -38.4583 -38.3942 -15.9798 -15.7066  -9.1880  -8.2354
    -7.6329  -6.6258  -5.5528  -4.6684  -4.3947  -1.3109  -1.0027   0.0340
     0.6306

          k = 0.0000 0.5292 0.0000 ( 15920 PWs)   bands (ev):

   -64.2849 -38.6756 -38.4546 -38.3984 -15.8612 -15.6601  -9.3090  -8.3580
    -7.6782  -6.6866  -5.5960  -4.6011  -4.2865  -1.2816  -0.8635   0.1306
     0.6674

          k = 0.0000-0.5774 0.0000 ( 15930 PWs)   bands (ev):

   -64.2843 -38.6817 -38.4533 -38.3999 -15.8196 -15.6439  -9.3519  -8.4001
    -7.6961  -6.7070  -5.6101  -4.5789  -4.2421  -1.2691  -0.8081   0.1619
     0.6793

          k = 0.0417 0.0722 0.0000 ( 16025 PWs)   bands (ev):

   -64.3195 -38.5237 -38.3338 -38.3192 -17.6010 -16.3850  -9.1802  -6.3048
    -6.0493  -5.9247  -5.1804  -4.8826  -3.7657  -0.9594  -0.8979  -0.6933
    -0.6902

          k = 0.0417 0.1203 0.0000 ( 16007 PWs)   bands (ev):

   -64.3171 -38.5189 -38.3579 -38.3250 -17.5015 -16.3423  -9.0696  -6.5149
    -6.1648  -5.9493  -5.3519  -4.7882  -3.8015  -1.1511  -1.0673  -0.7991
    -0.5254

          k = 0.0417 0.1684 0.0000 ( 15996 PWs)   bands (ev):

   -64.3137 -38.5122 -38.3918 -38.3332 -17.3571 -16.2803  -8.9200  -6.7833
    -6.4377  -5.8075  -5.5710  -4.7584  -3.8827  -1.3919  -1.1274  -0.9302
    -0.3179

          k = 0.0417 0.2165 0.0000 ( 15986 PWs)   bands (ev):

   -64.3096 -38.5039 -38.4331 -38.3432 -17.1738 -16.2018  -8.7576  -7.0671
    -6.7299  -5.8061  -5.6347  -4.8118  -4.0249  -1.5572  -1.0931  -1.0626
    -0.0975

          k = 0.0417 0.2646 0.0000 ( 15967 PWs)   bands (ev):

   -64.3050 -38.4946 -38.4788 -38.3543 -16.9598 -16.1105  -8.6299  -7.3147
    -7.0363  -6.0314  -5.4459  -4.9326  -4.2127  -1.6192  -1.1736  -0.9597
     0.1122

          k = 0.0417 0.3127 0.0000 ( 15962 PWs)   bands (ev):

   -64.3001 -38.5257 -38.4850 -38.3658 -16.7256 -16.0114  -8.6059  -7.4698
    -7.3489  -6.2301  -5.2616  -5.0871  -4.3900  -1.5904  -1.2432  -0.7533
     0.2942

          k = 0.0417 0.3608 0.0000 ( 15935 PWs)   bands (ev):

   -64.2955 -38.5708 -38.4758 -38.3769 -16.4848 -15.9106  -8.7142  -7.6529
    -7.5257  -6.3949  -5.2438  -5.1050  -4.4847  -1.5076  -1.2537  -0.5113
     0.4377

          k = 0.0417 0.4090 0.0000 ( 15925 PWs)   bands (ev):

   -64.2913 -38.6109 -38.4674 -38.3868 -16.2541 -15.8156  -8.8973  -7.9291
    -7.5520  -6.5245  -5.3816  -4.9835  -4.4627  -1.4169  -1.1886  -0.2699
     0.5362

          k = 0.0417 0.4571 0.0000 ( 15918 PWs)   bands (ev):

   -64.2879 -38.6435 -38.4606 -38.3948 -16.0530 -15.7342  -9.0855  -8.1576
    -7.5956  -6.6203  -5.4890  -4.8812  -4.3618  -1.3462  -1.0581  -0.0589
     0.5883

          k = 0.0417 0.5052 0.0000 ( 15917 PWs)   bands (ev):

   -64.2855 -38.6664 -38.4558 -38.4005 -15.9025 -15.6744  -9.2342  -8.3208
    -7.6479  -6.6834  -5.5615  -4.8000  -4.2441  -1.2960  -0.9120   0.1003
     0.6010

          k = 0.0417 0.5533 0.0000 ( 15918 PWs)   bands (ev):

   -64.2843 -38.6783 -38.4533 -38.4035 -15.8215 -15.6426  -9.3159  -8.4059
    -7.6826  -6.7148  -5.5977  -4.7558  -4.1657  -1.2692  -0.8118   0.1896
     0.5942

          k = 0.0833 0.1443 0.0000 ( 16015 PWs)   bands (ev):

   -64.3143 -38.5133 -38.3857 -38.3326 -17.3807 -16.2904  -8.9424  -6.7394
    -6.3777  -5.8354  -5.5956  -4.7097  -3.8657  -1.3584  -1.1505  -0.9209
    -0.3358

          k = 0.0833 0.1925 0.0000 ( 15995 PWs)   bands (ev):

   -64.3106 -38.5059 -38.4214 -38.3426 -17.2184 -16.2207  -8.7890  -6.9967
    -6.6146  -5.8812  -5.6930  -4.6889  -3.9815  -1.5370  -1.1752  -1.0472
    -0.1181

          k = 0.0833 0.2406 0.0000 ( 15975 PWs)   bands (ev):

   -64.3063 -38.4972 -38.4628 -38.3543 -17.0216 -16.1364  -8.6451  -7.2411
    -6.8800  -6.1538  -5.5408  -4.7463  -4.1443  -1.6482  -1.1447  -1.1079
     0.0988

          k = 0.0833 0.2887 0.0000 ( 15957 PWs)   bands (ev):

   -64.3016 -38.5068 -38.4880 -38.3669 -16.7996 -16.0417  -8.5707  -7.4169
    -7.1801  -6.3730  -5.4058  -4.8696  -4.3107  -1.6817  -1.1917  -0.9523
     0.2936

          k = 0.0833 0.3368 0.0000 ( 15958 PWs)   bands (ev):

   -64.2970 -38.5505 -38.4787 -38.3795 -16.5642 -15.9421  -8.6198  -7.4998
    -7.4894  -6.5282  -5.3160  -5.0304  -4.4096  -1.6459  -1.1836  -0.7357
     0.4494

          k = 0.0833 0.3849 0.0000 ( 15936 PWs)   bands (ev):

   -64.2927 -38.5909 -38.4701 -38.3913 -16.3305 -15.8443  -8.7680  -7.8091
    -7.5064  -6.6297  -5.2666  -5.1997  -4.4011  -1.5545  -1.1321  -0.4917
     0.5521

          k = 0.0833 0.4330 0.0000 ( 15917 PWs)   bands (ev):

   -64.2889 -38.6255 -38.4626 -38.4013 -16.1163 -15.7560  -8.9465  -8.0796
    -7.5367  -6.6912  -5.3549  -5.2175  -4.3122  -1.4339  -1.0493  -0.2485
     0.5917

          k = 0.0833 0.4811 0.0000 ( 15928 PWs)   bands (ev):

   -64.2861 -38.6518 -38.4569 -38.4090 -15.9418 -15.6851  -9.1051  -8.2890
    -7.5912  -6.7243  -5.4790  -5.1586  -4.1910  -1.3326  -0.9346  -0.0247
     0.5661

          k = 0.0833 0.5292 0.0000 ( 15912 PWs)   bands (ev):

   -64.2843 -38.6684 -38.4533 -38.4138 -15.8268 -15.6390  -9.2128  -8.4214
    -7.6420  -6.7392  -5.5592  -5.1119  -4.0855  -1.2825  -0.8125   0.1691
     0.4847

          k = 0.0833 0.5774 0.0000 ( 15928 PWs)   bands (ev):

   -64.2837 -38.6740 -38.4521 -38.4155 -15.7865 -15.6230  -9.2510  -8.4666
    -7.6622  -6.7431  -5.5870  -5.0947  -4.0431  -1.2703  -0.7571   0.2936
     0.3960

          k = 0.1250 0.2165 0.0000 ( 15989 PWs)   bands (ev):

   -64.3067 -38.4981 -38.4568 -38.3549 -17.0425 -16.1452  -8.6509  -7.2123
    -6.8015  -6.2297  -5.5772  -4.6667  -4.1198  -1.6585  -1.1718  -1.1373
     0.0981

          k = 0.1250 0.2646 0.0000 ( 15967 PWs)   bands (ev):

   -64.3024 -38.4955 -38.4895 -38.3690 -16.8374 -16.0571  -8.5530  -7.3798
    -7.0343  -6.5249  -5.4935  -4.7202  -4.2657  -1.7338  -1.1682  -1.0882
     0.3017

          k = 0.1250 0.3127 0.0000 ( 15951 PWs)   bands (ev):

   -64.2979 -38.5352 -38.4806 -38.3838 -16.6135 -15.9614  -8.5520  -7.4541
    -7.3456  -6.6998  -5.4759  -4.8426  -4.3602  -1.7401  -1.1431  -0.9284
     0.4719

          k = 0.1250 0.3608 0.0000 ( 15960 PWs)   bands (ev):

   -64.2936 -38.5730 -38.4719 -38.3983 -16.3840 -15.8639  -8.6530  -7.6862
    -7.4556  -6.7806  -5.5159  -5.0092  -4.3646  -1.6673  -1.0856  -0.7183
     0.5923

          k = 0.1250 0.4090 0.0000 ( 15947 PWs)   bands (ev):

   -64.2897 -38.6067 -38.4642 -38.4113 -16.1651 -15.7716  -8.8011  -8.0009
    -7.4612  -6.8067  -5.5544  -5.1911  -4.2927  -1.5331  -1.0158  -0.4882
     0.6510

          k = 0.1250 0.4571 0.0000 ( 15930 PWs)   bands (ev):

   -64.2865 -38.6341 -38.4578 -38.4219 -15.9752 -15.6924  -8.9466  -8.2588
    -7.5081  -6.8001  -5.5560  -5.3618  -4.1758  -1.3948  -0.9263  -0.2642
     0.6449

          k = 0.1250 0.5052 0.0000 ( 15927 PWs)   bands (ev):

   -64.2843 -38.6534 -38.4533 -38.4294 -15.8339 -15.6341  -9.0591  -8.4411
    -7.5737  -6.7785  -5.5356  -5.4967  -4.0508  -1.3233  -0.7979  -0.0677
     0.5870

          k = 0.1250 0.5533 0.0000 ( 15918 PWs)   bands (ev):

   -64.2831 -38.6633 -38.4510 -38.4333 -15.7581 -15.6031  -9.1202  -8.5354
    -7.6184  -6.7605  -5.5725  -5.5191  -3.9672  -1.3111  -0.6890   0.0669
     0.5176

          k = 0.1667 0.2887 0.0000 ( 15971 PWs)   bands (ev):

   -64.2982 -38.5293 -38.4812 -38.3859 -16.6302 -15.9679  -8.5273  -7.4389
    -7.2621  -6.7934  -5.5355  -4.7685  -4.3433  -1.7736  -1.1303  -1.0045
     0.4817

          k = 0.1667 0.3368 0.0000 ( 15955 PWs)   bands (ev):

   -64.2941 -38.5620 -38.4729 -38.4037 -16.4116 -15.8737  -8.5843  -7.5930
    -7.4192  -6.8982  -5.6647  -4.8890  -4.3487  -1.7292  -1.0618  -0.8598
     0.6210

          k = 0.1667 0.3849 0.0000 ( 15934 PWs)   bands (ev):

   -64.2902 -38.5918 -38.4651 -38.4208 -16.1958 -15.7809  -8.6885  -7.9347
    -7.3862  -6.9122  -5.8164  -5.0586  -4.2897  -1.6041  -0.9893  -0.6788
     0.7102

          k = 0.1667 0.4330 0.0000 ( 15921 PWs)   bands (ev):

   -64.2868 -38.6169 -38.4584 -38.4358 -15.9996 -15.6968  -8.7976  -8.2319
    -7.4040  -6.8794  -5.9223  -5.2474  -4.1815  -1.4560  -0.9076  -0.4923
     0.7481

          k = 0.1667 0.4811 0.0000 ( 15944 PWs)   bands (ev):

   -64.2843 -38.6359 -38.4533 -38.4475 -15.8410 -15.6292  -8.8865  -8.4594
    -7.4748  -6.8231  -5.9666  -5.4241  -4.0453  -1.3787  -0.7743  -0.3283
     0.7443

          k = 0.1667 0.5292 0.0000 ( 15926 PWs)   bands (ev):

   -64.2827 -38.6478 -38.4549 -38.4501 -15.7372 -15.5851  -8.9430  -8.6020
    -7.5494  -6.7684  -5.9763  -5.5547  -3.9243  -1.3852  -0.6170  -0.2127
     0.7212

          k = 0.1667 0.5774 0.0000 ( 15928 PWs)   bands (ev):

   -64.2821 -38.6518 -38.4574 -38.4490 -15.7010 -15.5698  -8.9623  -8.6505
    -7.5802  -6.7450  -5.9768  -5.6039  -3.8745  -1.4005  -0.5455  -0.1700
     0.7084

          k = 0.2083 0.3608 0.0000 ( 15927 PWs)   bands (ev):

   -64.2903 -38.5859 -38.4655 -38.4249 -16.2063 -15.7840  -8.6457  -7.9073
    -7.3515  -6.9555  -5.9194  -5.0077  -4.2903  -1.6295  -0.9798  -0.7507
     0.7335

          k = 0.2083 0.4090 0.0000 ( 15931 PWs)   bands (ev):

   -64.2870 -38.6056 -38.4588 -38.4454 -16.0124 -15.6989  -8.7055  -8.2151
    -7.3127  -6.9294  -6.1644  -5.1768  -4.1896  -1.4920  -0.8950  -0.6257
     0.8130

          k = 0.2083 0.4571 0.0000 ( 15949 PWs)   bands (ev):

   -64.2843 -38.6207 -38.4632 -38.4533 -15.8461 -15.6255  -8.7447  -8.4720
    -7.3505  -6.8583  -6.3332  -5.3651  -4.0506  -1.4237  -0.7550  -0.5123
     0.8659

          k = 0.2083 0.5052 0.0000 ( 15946 PWs)   bands (ev):

   -64.2823 -38.6307 -38.4763 -38.4495 -15.7237 -15.5714  -8.7598  -8.6545
    -7.4475  -6.7719  -6.4116  -5.5360  -3.9012  -1.4608  -0.5603  -0.4298
     0.8973

          k = 0.2083 0.5533 0.0000 ( 15938 PWs)   bands (ev):

   -64.2814 -38.6357 -38.4834 -38.4475 -15.6585 -15.5426  -8.7605  -8.7491
    -7.5263  -6.7087  -6.4366  -5.6433  -3.7986  -1.5192  -0.4161  -0.3871
     0.9116

          k = 0.2500 0.4330 0.0000 ( 15966 PWs)   bands (ev):

   -64.2843 -38.6143 -38.4697 -38.4533 -15.8480 -15.6242  -8.6890  -8.4764
    -7.2739  -6.8715  -6.4998  -5.3424  -4.0538  -1.4407  -0.7478  -0.5782
     0.9109

          k = 0.2500 0.4811 0.0000 ( 15945 PWs)   bands (ev):

   -64.2822 -38.6182 -38.4912 -38.4492 -15.7171 -15.5640  -8.6834  -8.6366
    -7.3197  -6.7734  -6.7401  -5.5233  -3.8910  -1.5073  -0.5476  -0.5302
     0.9992

          k = 0.2500 0.5292 0.0000 ( 15948 PWs)   bands (ev):

   -64.2809 -38.6189 -38.5063 -38.4465 -15.6325 -15.5247  -8.8153  -8.5678
    -7.4449  -6.8395  -6.6737  -5.6759  -3.7443  -1.6186  -0.5331  -0.3296
     1.0619

          k = 0.2500 0.5774 0.0000 ( 15936 PWs)   bands (ev):

   -64.2804 -38.6187 -38.5119 -38.4456 -15.6032 -15.5110  -8.8605  -8.5325
    -7.5144  -6.8600  -6.6283  -5.7397  -3.6824  -1.6722  -0.5291  -0.2473
     1.0847

          k = 0.2917 0.5052 0.0000 ( 15932 PWs)   bands (ev):

   -64.2807 -38.6107 -38.5167 -38.4462 -15.6238 -15.5184  -8.8385  -8.4816
    -7.3639  -7.0506  -6.6595  -5.6886  -3.7238  -1.6573  -0.5842  -0.2996
     1.1173

          k = 0.2917 0.5533 0.0000 ( 15934 PWs)   bands (ev):

   -64.2799 -38.6026 -38.5341 -38.4447 -15.5748 -15.4941  -8.9202  -8.3320
    -7.5263  -7.1442  -6.5675  -5.8073  -3.6070  -1.7757  -0.6070  -0.1521
     1.1864

          k = 0.3333 0.5774 0.0000 ( 15894 PWs)   bands (ev):

   -64.2796 -38.5915 -38.5491 -38.4440 -15.5550 -15.4835  -8.9565  -8.1781
    -7.6529  -7.2234  -6.5163  -5.8671  -3.5492  -1.8435  -0.6335  -0.0851
     1.2325

     the Fermi energy is    -1.7499 ev

!    total energy              =    -184.92934463 Ry
     estimated scf accuracy    <          3.6E-13 Ry
     smearing contrib. (-TS)   =      -0.00206228 Ry
     internal energy E=F+TS    =    -184.92728236 Ry

     The total energy is F=E-TS. E is the sum of the following terms:
     one-electron contribution =   -1383.26581084 Ry
     hartree contribution      =     689.55344329 Ry
     xc contribution           =     -33.44175722 Ry
     ewald contribution        =     542.22684241 Ry

     convergence has been achieved in  19 iterations

     Writing all to output data dir ./mos2.save/ :
     XML data file, charge density, pseudopotentials, collected wavefunctions
 
     init_run     :      1.43s CPU      1.79s WALL (       1 calls)
     electrons    :     63.81s CPU     65.99s WALL (       1 calls)

     Called by init_run:
     wfcinit      :      0.87s CPU      0.90s WALL (       1 calls)
     potinit      :      0.34s CPU      0.40s WALL (       1 calls)
     hinit0       :      0.16s CPU      0.20s WALL (       1 calls)

     Called by electrons:
     c_bands      :     47.37s CPU     48.09s WALL (      19 calls)
     sum_band     :     10.14s CPU     10.29s WALL (      19 calls)
     v_of_rho     :      4.39s CPU      4.50s WALL (      20 calls)
     mix_rho      :      0.63s CPU      0.65s WALL (      19 calls)

     Called by c_bands:
     init_us_2    :      0.81s CPU      0.83s WALL (      78 calls)
     init_us_2:cp :      0.81s CPU      0.83s WALL (      78 calls)
     cegterg      :     41.25s CPU     41.79s WALL (      38 calls)

     Called by *egterg:
     cdiaghg      :      0.07s CPU      0.07s WALL (     154 calls)
     h_psi        :     37.83s CPU     38.34s WALL (     156 calls)
     g_psi        :      0.11s CPU      0.11s WALL (     116 calls)

     Called by h_psi:
     h_psi:calbec :      1.36s CPU      1.37s WALL (     156 calls)
     vloc_psi     :     34.28s CPU     34.75s WALL (     156 calls)
     add_vuspsi   :      1.87s CPU      1.89s WALL (     156 calls)

     General routines
     calbec       :      1.36s CPU      1.37s WALL (     156 calls)
     fft          :      1.58s CPU      1.62s WALL (     200 calls)
     ffts         :      0.13s CPU      0.13s WALL (      19 calls)
     fftw         :     29.28s CPU     29.65s WALL (    4074 calls)
 
     Parallel routines
 
     PWSCF        :   1m 5.37s CPU   1m16.02s WALL

 
   This run was terminated on:  16:37: 1  27Apr2024            

=------------------------------------------------------------------------------=
   JOB DONE.
=------------------------------------------------------------------------------=
