
     Program PWSCF v.7.3 starts on 18Apr2024 at 10:24:50 

     This program is part of the open-source Quantum ESPRESSO suite
     for quantum simulation of materials; please cite
         "P. Giannozzi et al., J. Phys.:Condens. Matter 21 395502 (2009);
         "P. Giannozzi et al., J. Phys.:Condens. Matter 29 465901 (2017);
         "P. Giannozzi et al., J. Chem. Phys. 152 154105 (2020);
          URL http://www.quantum-espresso.org", 
     in publications or presentations arising from this work. More details at
     http://www.quantum-espresso.org/quote

     Parallel version (MPI), running on    48 processors

     MPI processes distributed on     1 nodes
     249967 MiB available memory on the printing compute node when the environment starts
 
     Reading input from sc.in

     Current dimensions of program PWSCF are:
     Max number of different atomic species (ntypx) = 10
     Max number of k-points (npk) =  40000
     Max angular momentum in pseudopotentials (lmaxx) =  4
 
     K-points division:     npool     =      48
     Subspace diagonalization in iterative solution of the eigenvalue problem:
     a serial algorithm will be used

 
     G-vector sticks info
     --------------------
     sticks:   dense  smooth     PW     G-vecs:    dense   smooth      PW
     Sum        1003    1003    283               127553   127553   19429
 
     Using Slab Decomposition
 


     bravais-lattice index     =            4
     lattice parameter (alat)  =       6.0199  a.u.
     unit-cell volume          =     944.6376 (a.u.)^3
     number of atoms/cell      =            3
     number of atomic types    =            2
     number of electrons       =        26.15
     number of Kohn-Sham states=           17
     kinetic-energy cutoff     =     100.0000  Ry
     charge density cutoff     =     400.0000  Ry
     scf convergence threshold =      1.0E-12
     mixing beta               =       0.7000
     number of iterations used =            8  plain     mixing
     Exchange-correlation= PBE
                           (   1   4   3   4   0   0   0)

     celldm(1)=   6.019885  celldm(2)=   0.000000  celldm(3)=   5.000000
     celldm(4)=   0.000000  celldm(5)=   0.000000  celldm(6)=   0.000000

     crystal axes: (cart. coord. in units of alat)
               a(1) = (   1.000000   0.000000   0.000000 )  
               a(2) = (  -0.500000   0.866025   0.000000 )  
               a(3) = (   0.000000   0.000000   5.000000 )  

     reciprocal axes: (cart. coord. in units 2 pi/alat)
               b(1) = (  1.000000  0.577350  0.000000 )  
               b(2) = (  0.000000  1.154701  0.000000 )  
               b(3) = (  0.000000  0.000000  0.200000 )  


     PseudoPot. # 1 for Mo read from file:
     ../pseudo/Mo.UPF
     MD5 check sum: 4e1c3579de4f68baf863f15f5be96aa1
     Pseudo is Norm-conserving + core correction, Zval = 14.0
     Generated using ONCVPSP code by D. R. Hamann
     Using radial grid of 1640 points,  6 beta functions with: 
                l(1) =   0
                l(2) =   0
                l(3) =   1
                l(4) =   1
                l(5) =   2
                l(6) =   2

     PseudoPot. # 2 for S  read from file:
     ../pseudo/S.UPF
     MD5 check sum: a7319d53700e7dada26ada44d0048388
     Pseudo is Norm-conserving + core correction, Zval =  6.0
     Generated using ONCVPSP code by D. R. Hamann
     Using radial grid of 1146 points,  6 beta functions with: 
                l(1) =   0
                l(2) =   0
                l(3) =   1
                l(4) =   1
                l(5) =   2
                l(6) =   2

     atomic species   valence    mass     pseudopotential
     Mo               14.00    95.95000     Mo( 1.00)
     S                 6.00    32.06000     S ( 1.00)

     12 Sym. Ops. (no inversion) found



   Cartesian axes

     site n.     atom                  positions (alat units)
         1        Mo     tau(   1) = (   0.0000000   0.0000000   0.0000000  )
         2        S      tau(   2) = (   0.5000000   0.2886750  -0.4913414  )
         3        S      tau(   3) = (   0.5000000   0.2886750   0.4913414  )

     number of k points=    61  Fermi-Dirac smearing, width (Ry)=  0.0050
                       cart. coord. in units 2pi/alat
        k(    1) = (   0.0000000   0.0000000   0.0000000), wk =   0.0034722
        k(    2) = (   0.0000000   0.0481125   0.0000000), wk =   0.0208333
        k(    3) = (   0.0000000   0.0962250   0.0000000), wk =   0.0208333
        k(    4) = (   0.0000000   0.1443376   0.0000000), wk =   0.0208333
        k(    5) = (   0.0000000   0.1924501   0.0000000), wk =   0.0208333
        k(    6) = (   0.0000000   0.2405626   0.0000000), wk =   0.0208333
        k(    7) = (   0.0000000   0.2886751   0.0000000), wk =   0.0208333
        k(    8) = (   0.0000000   0.3367877   0.0000000), wk =   0.0208333
        k(    9) = (   0.0000000   0.3849002   0.0000000), wk =   0.0208333
        k(   10) = (   0.0000000   0.4330127   0.0000000), wk =   0.0208333
        k(   11) = (   0.0000000   0.4811252   0.0000000), wk =   0.0208333
        k(   12) = (   0.0000000   0.5292377   0.0000000), wk =   0.0208333
        k(   13) = (   0.0000000  -0.5773503   0.0000000), wk =   0.0104167
        k(   14) = (   0.0416667   0.0721688   0.0000000), wk =   0.0208333
        k(   15) = (   0.0416667   0.1202813   0.0000000), wk =   0.0416667
        k(   16) = (   0.0416667   0.1683938   0.0000000), wk =   0.0416667
        k(   17) = (   0.0416667   0.2165064   0.0000000), wk =   0.0416667
        k(   18) = (   0.0416667   0.2646189   0.0000000), wk =   0.0416667
        k(   19) = (   0.0416667   0.3127314   0.0000000), wk =   0.0416667
        k(   20) = (   0.0416667   0.3608439   0.0000000), wk =   0.0416667
        k(   21) = (   0.0416667   0.4089564   0.0000000), wk =   0.0416667
        k(   22) = (   0.0416667   0.4570690   0.0000000), wk =   0.0416667
        k(   23) = (   0.0416667   0.5051815   0.0000000), wk =   0.0416667
        k(   24) = (   0.0416667   0.5532940   0.0000000), wk =   0.0416667
        k(   25) = (   0.0833333   0.1443376   0.0000000), wk =   0.0208333
        k(   26) = (   0.0833333   0.1924501   0.0000000), wk =   0.0416667
        k(   27) = (   0.0833333   0.2405626   0.0000000), wk =   0.0416667
        k(   28) = (   0.0833333   0.2886751   0.0000000), wk =   0.0416667
        k(   29) = (   0.0833333   0.3367877   0.0000000), wk =   0.0416667
        k(   30) = (   0.0833333   0.3849002   0.0000000), wk =   0.0416667
        k(   31) = (   0.0833333   0.4330127   0.0000000), wk =   0.0416667
        k(   32) = (   0.0833333   0.4811252   0.0000000), wk =   0.0416667
        k(   33) = (   0.0833333   0.5292377   0.0000000), wk =   0.0416667
        k(   34) = (   0.0833333   0.5773503   0.0000000), wk =   0.0208333
        k(   35) = (   0.1250000   0.2165064   0.0000000), wk =   0.0208333
        k(   36) = (   0.1250000   0.2646189   0.0000000), wk =   0.0416667
        k(   37) = (   0.1250000   0.3127314   0.0000000), wk =   0.0416667
        k(   38) = (   0.1250000   0.3608439   0.0000000), wk =   0.0416667
        k(   39) = (   0.1250000   0.4089564   0.0000000), wk =   0.0416667
        k(   40) = (   0.1250000   0.4570690   0.0000000), wk =   0.0416667
        k(   41) = (   0.1250000   0.5051815   0.0000000), wk =   0.0416667
        k(   42) = (   0.1250000   0.5532940   0.0000000), wk =   0.0416667
        k(   43) = (   0.1666667   0.2886751   0.0000000), wk =   0.0208333
        k(   44) = (   0.1666667   0.3367877   0.0000000), wk =   0.0416667
        k(   45) = (   0.1666667   0.3849002   0.0000000), wk =   0.0416667
        k(   46) = (   0.1666667   0.4330127   0.0000000), wk =   0.0416667
        k(   47) = (   0.1666667   0.4811252   0.0000000), wk =   0.0416667
        k(   48) = (   0.1666667   0.5292377   0.0000000), wk =   0.0416667
        k(   49) = (   0.1666667   0.5773503   0.0000000), wk =   0.0208333
        k(   50) = (   0.2083333   0.3608439   0.0000000), wk =   0.0208333
        k(   51) = (   0.2083333   0.4089564   0.0000000), wk =   0.0416667
        k(   52) = (   0.2083333   0.4570690   0.0000000), wk =   0.0416667
        k(   53) = (   0.2083333   0.5051815   0.0000000), wk =   0.0416667
        k(   54) = (   0.2083333   0.5532940   0.0000000), wk =   0.0416667
        k(   55) = (   0.2500000   0.4330127   0.0000000), wk =   0.0208333
        k(   56) = (   0.2500000   0.4811252   0.0000000), wk =   0.0416667
        k(   57) = (   0.2500000   0.5292377   0.0000000), wk =   0.0416667
        k(   58) = (   0.2500000   0.5773503   0.0000000), wk =   0.0208333
        k(   59) = (   0.2916667   0.5051815   0.0000000), wk =   0.0208333
        k(   60) = (   0.2916667   0.5532940   0.0000000), wk =   0.0416667
        k(   61) = (   0.3333333   0.5773503   0.0000000), wk =   0.0069444

     Dense  grid:   127553 G-vectors     FFT dimensions: (  40,  40, 192)

     Estimated max dynamical RAM per process >     123.41 MB

     Estimated total dynamical RAM >       4.36 GB
 ----2D----2D----2D----2D----2D----2D----2D----2D----2D----2D----2D----2D
  The code is running with the 2D cutoff
  Please refer to:
  Sohier, T., Calandra, M., & Mauri, F. (2017), 
  Density functional perturbation theory for gated two-dimensional heterostructu
 res:
  Theoretical developments and application to flexural phonons in graphene.
  Physical Review B, 96(7), 75448. https://doi.org/10.1103/PhysRevB.96.075448
 ----2D----2D----2D----2D----2D----2D----2D----2D----2D----2D----2D----2D

     Initial potential from superposition of free atoms

     starting charge      25.9985, renormalised to      26.1500

     negative rho (up, down):  7.074E-06 0.000E+00
     Starting wfcs are   18 randomized atomic wfcs

     total cpu time spent up to now is        2.0 secs

     Self-consistent Calculation

     iteration #  1     ecut=   100.00 Ry     beta= 0.70
     Davidson diagonalization with overlap
     ethr =  1.00E-02,  avg # of iterations =  4.0

     total cpu time spent up to now is        4.6 secs

     total energy              =    -184.21863138 Ry
     estimated scf accuracy    <       1.05818876 Ry

     iteration #  2     ecut=   100.00 Ry     beta= 0.70
     Davidson diagonalization with overlap
     ethr =  4.05E-03,  avg # of iterations =  4.2

     total cpu time spent up to now is        7.7 secs

     total energy              =    -183.18680179 Ry
     estimated scf accuracy    <      14.70728532 Ry

     iteration #  3     ecut=   100.00 Ry     beta= 0.70
     Davidson diagonalization with overlap
     ethr =  4.05E-03,  avg # of iterations =  2.7

     total cpu time spent up to now is       10.3 secs

     total energy              =    -184.91081300 Ry
     estimated scf accuracy    <       0.03006265 Ry

     iteration #  4     ecut=   100.00 Ry     beta= 0.70
     Davidson diagonalization with overlap
     ethr =  1.15E-04,  avg # of iterations =  5.0

     total cpu time spent up to now is       13.7 secs

     total energy              =    -184.92144925 Ry
     estimated scf accuracy    <       0.02287573 Ry

     iteration #  5     ecut=   100.00 Ry     beta= 0.70
     Davidson diagonalization with overlap
     ethr =  8.75E-05,  avg # of iterations =  2.0

     total cpu time spent up to now is       16.1 secs

     total energy              =    -184.92274646 Ry
     estimated scf accuracy    <       0.00477495 Ry

     iteration #  6     ecut=   100.00 Ry     beta= 0.70
     Davidson diagonalization with overlap
     ethr =  1.83E-05,  avg # of iterations =  2.7

     total cpu time spent up to now is       18.5 secs

     total energy              =    -184.92352510 Ry
     estimated scf accuracy    <       0.00048949 Ry

     iteration #  7     ecut=   100.00 Ry     beta= 0.70
     Davidson diagonalization with overlap
     ethr =  1.87E-06,  avg # of iterations =  2.7

     total cpu time spent up to now is       21.0 secs

     total energy              =    -184.92360580 Ry
     estimated scf accuracy    <       0.00001233 Ry

     iteration #  8     ecut=   100.00 Ry     beta= 0.70
     Davidson diagonalization with overlap
     ethr =  4.72E-08,  avg # of iterations =  4.0

     negative rho (up, down):  1.050E-06 0.000E+00

     total cpu time spent up to now is       23.9 secs

     total energy              =    -184.92360817 Ry
     estimated scf accuracy    <       0.00000687 Ry

     iteration #  9     ecut=   100.00 Ry     beta= 0.70
     Davidson diagonalization with overlap
     ethr =  2.63E-08,  avg # of iterations =  2.0

     total cpu time spent up to now is       26.3 secs

     total energy              =    -184.92360914 Ry
     estimated scf accuracy    <       0.00000068 Ry

     iteration # 10     ecut=   100.00 Ry     beta= 0.70
     Davidson diagonalization with overlap
     ethr =  2.60E-09,  avg # of iterations =  2.6

     total cpu time spent up to now is       28.9 secs

     total energy              =    -184.92360925 Ry
     estimated scf accuracy    <       0.00000003 Ry

     iteration # 11     ecut=   100.00 Ry     beta= 0.70
     Davidson diagonalization with overlap
     ethr =  1.31E-10,  avg # of iterations =  4.0

     total cpu time spent up to now is       31.9 secs

     total energy              =    -184.92360927 Ry
     estimated scf accuracy    <          4.4E-09 Ry

     iteration # 12     ecut=   100.00 Ry     beta= 0.70
     Davidson diagonalization with overlap
     ethr =  1.67E-11,  avg # of iterations =  2.5

     total cpu time spent up to now is       34.3 secs

     total energy              =    -184.92360927 Ry
     estimated scf accuracy    <          2.6E-09 Ry

     iteration # 13     ecut=   100.00 Ry     beta= 0.70
     Davidson diagonalization with overlap
     ethr =  1.01E-11,  avg # of iterations =  2.3

     total cpu time spent up to now is       36.9 secs

     total energy              =    -184.92360927 Ry
     estimated scf accuracy    <          2.4E-10 Ry

     iteration # 14     ecut=   100.00 Ry     beta= 0.70
     Davidson diagonalization with overlap
     ethr =  9.34E-13,  avg # of iterations =  2.0

     total cpu time spent up to now is       39.3 secs

     total energy              =    -184.92360927 Ry
     estimated scf accuracy    <          1.4E-11 Ry

     iteration # 15     ecut=   100.00 Ry     beta= 0.70
     Davidson diagonalization with overlap
     ethr =  1.00E-13,  avg # of iterations =  3.9

     total cpu time spent up to now is       42.2 secs

     total energy              =    -184.92360927 Ry
     estimated scf accuracy    <          3.4E-11 Ry

     iteration # 16     ecut=   100.00 Ry     beta= 0.70
     Davidson diagonalization with overlap
     ethr =  1.00E-13,  avg # of iterations =  2.0

     total cpu time spent up to now is       44.7 secs

     End of self-consistent calculation

          k = 0.0000 0.0000 0.0000 ( 15995 PWs)   bands (ev):

   -64.7499 -38.9503 -38.7447 -38.7447 -18.0846 -16.8201  -9.6606  -6.5477
    -6.5477  -6.0063  -5.4620  -5.4620  -4.1217  -1.2405  -1.2405  -1.0162
    -1.0162

          k = 0.0000 0.0481 0.0000 ( 16053 PWs)   bands (ev):

   -64.7493 -38.9490 -38.7511 -38.7462 -18.0590 -16.8092  -9.6308  -6.6087
    -6.5212  -6.1255  -5.5051  -5.3809  -4.1277  -1.2862  -1.1935  -1.1150
    -1.0458

          k = 0.0000 0.0962 0.0000 ( 16041 PWs)   bands (ev):

   -64.7475 -38.9453 -38.7699 -38.7504 -17.9831 -16.7768  -9.5443  -6.7798
    -6.4430  -6.3726  -5.6256  -5.2555  -4.1520  -1.3890  -1.3494  -1.1287
    -1.0627

          k = 0.0000 0.1443 0.0000 ( 16007 PWs)   bands (ev):

   -64.7445 -38.9395 -38.7997 -38.7572 -17.8599 -16.7242  -9.4104  -7.0301
    -6.6607  -6.3176  -5.8023  -5.1889  -4.2125  -1.6156  -1.4744  -1.2496
    -0.8737

          k = 0.0000 0.1925 0.0000 ( 15997 PWs)   bands (ev):

   -64.7407 -38.9319 -38.8384 -38.7661 -17.6944 -16.6536  -9.2485  -7.3187
    -6.9661  -6.1523  -6.0107  -5.2122  -4.3308  -1.8314  -1.4782  -1.3881
    -0.6567

          k = 0.0000 0.2406 0.0000 ( 15985 PWs)   bands (ev):

   -64.7362 -38.9229 -38.8830 -38.7764 -17.4935 -16.5683  -9.0948  -7.5979
    -7.2806  -6.2294  -5.9578  -5.3152  -4.5103  -1.9466  -1.5238  -1.3783
    -0.4388

          k = 0.0000 0.2887 0.0000 ( 15975 PWs)   bands (ev):

   -64.7314 -38.9306 -38.9134 -38.7874 -17.2668 -16.4725  -9.0114  -7.8104
    -7.5975  -6.4421  -5.7480  -5.4626  -4.7156  -1.9529  -1.6385  -1.1929
    -0.2399

          k = 0.0000 0.3368 0.0000 ( 15941 PWs)   bands (ev):

   -64.7266 -38.9779 -38.9038 -38.7984 -17.0263 -16.3719  -9.0599  -7.9133
    -7.9072  -6.6368  -5.6171  -5.5396  -4.8827  -1.8726  -1.7188  -0.9592
    -0.0719

          k = 0.0000 0.3849 0.0000 ( 15944 PWs)   bands (ev):

   -64.7221 -39.0216 -38.8948 -38.8086 -16.7869 -16.2733  -9.2211  -8.1954
    -7.9461  -6.8051  -5.7538  -5.3497  -4.9535  -1.7580  -1.7365  -0.7178
     0.0604

          k = 0.0000 0.4330 0.0000 ( 15928 PWs)   bands (ev):

   -64.7183 -39.0589 -38.8871 -38.8173 -16.5671 -16.1843  -9.4191  -8.4449
    -7.9799  -6.9410  -5.8610  -5.1930  -4.9129  -1.7587  -1.5722  -0.5052
     0.1575

          k = 0.0000 0.4811 0.0000 ( 15916 PWs)   bands (ev):

   -64.7153 -39.0874 -38.8812 -38.8241 -16.3876 -16.1130  -9.5961  -8.6383
    -8.0310  -7.0407  -5.9359  -5.0788  -4.8019  -1.7345  -1.4064  -0.3471
     0.2225

          k = 0.0000 0.5292 0.0000 ( 15920 PWs)   bands (ev):

   -64.7135 -39.1052 -38.8775 -38.8283 -16.2691 -16.0667  -9.7167  -8.7610
    -8.0773  -7.1014  -5.9795  -5.0106  -4.6923  -1.7066  -1.2742  -0.2539
     0.2596

          k = 0.0000-0.5774 0.0000 ( 15930 PWs)   bands (ev):

   -64.7128 -39.1113 -38.8762 -38.8297 -16.2275 -16.0507  -9.7595  -8.8031
    -8.0956  -7.1218  -5.9938  -4.9881  -4.6475  -1.6946  -1.2216  -0.2237
     0.2716

          k = 0.0417 0.0722 0.0000 ( 16025 PWs)   bands (ev):

   -64.7481 -38.9466 -38.7637 -38.7491 -18.0082 -16.7875  -9.5726  -6.7244
    -6.4692  -6.2987  -5.5962  -5.2778  -4.1428  -1.3635  -1.2778  -1.1041
    -1.1017

          k = 0.0417 0.1203 0.0000 ( 16007 PWs)   bands (ev):

   -64.7457 -38.9418 -38.7877 -38.7549 -17.9087 -16.7450  -9.4620  -6.9336
    -6.5475  -6.3688  -5.7673  -5.1757  -4.1850  -1.5202  -1.4650  -1.2100
    -0.9354

          k = 0.0417 0.1684 0.0000 ( 15996 PWs)   bands (ev):

   -64.7423 -38.9350 -38.8216 -38.7631 -17.7643 -16.6833  -9.3127  -7.2006
    -6.8268  -6.2265  -5.9857  -5.1417  -4.2748  -1.7557  -1.5181  -1.3413
    -0.7260

          k = 0.0417 0.2165 0.0000 ( 15986 PWs)   bands (ev):

   -64.7381 -38.9268 -38.8628 -38.7730 -17.5810 -16.6052  -9.1513  -7.4820
    -7.1241  -6.2199  -6.0529  -5.1937  -4.4254  -1.9201  -1.4765  -1.4741
    -0.5038

          k = 0.0417 0.2646 0.0000 ( 15967 PWs)   bands (ev):

   -64.7335 -38.9175 -38.9085 -38.7842 -17.3670 -16.5145  -9.0263  -7.7254
    -7.4343  -6.4444  -5.8629  -5.3144  -4.6195  -1.9861  -1.5854  -1.3372
    -0.2931

          k = 0.0417 0.3127 0.0000 ( 15962 PWs)   bands (ev):

   -64.7287 -38.9554 -38.9079 -38.7956 -17.1329 -16.4159  -9.0073  -7.8740
    -7.7496  -6.6427  -5.6772  -5.4695  -4.8002  -1.9662  -1.6546  -1.1276
    -0.1106

          k = 0.0417 0.3608 0.0000 ( 15935 PWs)   bands (ev):

   -64.7241 -39.0004 -38.8987 -38.8067 -16.8922 -16.3158  -9.1203  -8.0552
    -7.9245  -6.8074  -5.6269  -5.5187  -4.8963  -1.8974  -1.6621  -0.8856
     0.0327

          k = 0.0417 0.4090 0.0000 ( 15925 PWs)   bands (ev):

   -64.7199 -39.0405 -38.8903 -38.8166 -16.6616 -16.2212  -9.3054  -8.3322
    -7.9489  -6.9373  -5.7651  -5.3950  -4.8740  -1.8234  -1.5922  -0.6470
     0.1310

          k = 0.0417 0.4571 0.0000 ( 15918 PWs)   bands (ev):

   -64.7165 -39.0731 -38.8835 -38.8247 -16.4607 -16.1403  -9.4938  -8.5610
    -7.9930  -7.0334  -5.8729  -5.2908  -4.7718  -1.7633  -1.4626  -0.4400
     0.1830

          k = 0.0417 0.5052 0.0000 ( 15917 PWs)   bands (ev):

   -64.7141 -39.0960 -38.8787 -38.8304 -16.3103 -16.0809  -9.6422  -8.7244
    -8.0465  -7.0969  -5.9455  -5.2082  -4.6527  -1.7179  -1.3213  -0.2843
     0.1957

          k = 0.0417 0.5533 0.0000 ( 15918 PWs)   bands (ev):

   -64.7128 -39.1078 -38.8762 -38.8333 -16.2294 -16.0493  -9.7235  -8.8095
    -8.0819  -7.1285  -5.9818  -5.1633  -4.5734  -1.6932  -1.2251  -0.1968
     0.1888

          k = 0.0833 0.1443 0.0000 ( 16015 PWs)   bands (ev):

   -64.7428 -38.9361 -38.8155 -38.7624 -17.7879 -16.6934  -9.3350  -7.1570
    -6.7652  -6.2544  -6.0101  -5.0943  -4.2565  -1.7231  -1.5444  -1.3311
    -0.7406

          k = 0.0833 0.1925 0.0000 ( 15995 PWs)   bands (ev):

   -64.7391 -38.9288 -38.8512 -38.7724 -17.6256 -16.6241  -9.1822  -7.4126
    -7.0065  -6.2945  -6.1112  -5.0724  -4.3803  -1.9009  -1.5645  -1.4563
    -0.5173

          k = 0.0833 0.2406 0.0000 ( 15975 PWs)   bands (ev):

   -64.7348 -38.9201 -38.8925 -38.7842 -17.4288 -16.5402  -9.0402  -7.6538
    -7.2764  -6.5651  -5.9578  -5.1301  -4.5501  -2.0160  -1.5527  -1.4926
    -0.2964

          k = 0.0833 0.2887 0.0000 ( 15957 PWs)   bands (ev):

   -64.7302 -38.9365 -38.9109 -38.7968 -17.2068 -16.4461  -8.9700  -7.8239
    -7.5804  -6.7823  -5.8211  -5.2544  -4.7211  -2.0572  -1.5990  -1.3335
    -0.1006

          k = 0.0833 0.3368 0.0000 ( 15958 PWs)   bands (ev):

   -64.7255 -38.9802 -38.9016 -38.8094 -16.9716 -16.3470  -9.0243  -7.9027
    -7.8901  -6.9364  -5.7295  -5.4161  -4.8226  -2.0306  -1.5917  -1.1158
     0.0542

          k = 0.0833 0.3849 0.0000 ( 15936 PWs)   bands (ev):

   -64.7212 -39.0206 -38.8930 -38.8211 -16.7380 -16.2498  -9.1755  -8.2133
    -7.9035  -7.0380  -5.6781  -5.5859  -4.8146  -1.9485  -1.5423  -0.8732
     0.1552

          k = 0.0833 0.4330 0.0000 ( 15917 PWs)   bands (ev):

   -64.7175 -39.0551 -38.8855 -38.8311 -16.5239 -16.1620  -9.3548  -8.4844
    -7.9336  -7.1001  -5.7411  -5.6270  -4.7250  -1.8375  -1.4612  -0.6331
     0.1937

          k = 0.0833 0.4811 0.0000 ( 15928 PWs)   bands (ev):

   -64.7146 -39.0814 -38.8798 -38.8388 -16.3496 -16.0915  -9.5132  -8.6940
    -7.9891  -7.1342  -5.8648  -5.5663  -4.6027  -1.7456  -1.3470  -0.4132
     0.1682

          k = 0.0833 0.5292 0.0000 ( 15912 PWs)   bands (ev):

   -64.7128 -39.0979 -38.8762 -38.8436 -16.2347 -16.0457  -9.6206  -8.8264
    -8.0410  -7.1497  -5.9446  -5.5184  -4.4962  -1.7020  -1.2262  -0.2233
     0.0884

          k = 0.0833 0.5774 0.0000 ( 15928 PWs)   bands (ev):

   -64.7122 -39.1036 -38.8750 -38.8453 -16.1945 -16.0298  -9.6585  -8.8716
    -8.0617  -7.1540  -5.9722  -5.5008  -4.4534  -1.6918  -1.1719  -0.1027
     0.0027

          k = 0.1250 0.2165 0.0000 ( 15989 PWs)   bands (ev):

   -64.7353 -38.9210 -38.8866 -38.7847 -17.4497 -16.5489  -9.0456  -7.6256
    -7.1964  -6.6413  -5.9940  -5.0510  -4.5252  -2.0268  -1.5594  -1.5437
    -0.2925

          k = 0.1250 0.2646 0.0000 ( 15967 PWs)   bands (ev):

   -64.7309 -38.9253 -38.9124 -38.7988 -17.2446 -16.4614  -8.9508  -7.7886
    -7.4339  -6.9331  -5.9085  -5.1058  -4.6763  -2.1089  -1.5733  -1.4738
    -0.0845

          k = 0.1250 0.3127 0.0000 ( 15951 PWs)   bands (ev):

   -64.7265 -38.9648 -38.9035 -38.8137 -17.0208 -16.3662  -8.9549  -7.8565
    -7.7498  -7.1046  -5.8890  -5.2296  -4.7741  -2.1218  -1.5505  -1.3130
     0.0857

          k = 0.1250 0.3608 0.0000 ( 15960 PWs)   bands (ev):

   -64.7221 -39.0027 -38.8948 -38.8281 -16.7915 -16.2692  -9.0596  -8.0924
    -7.8533  -7.1844  -5.9274  -5.3971  -4.7799  -2.0546  -1.4978  -1.1035
     0.2036

          k = 0.1250 0.4090 0.0000 ( 15947 PWs)   bands (ev):

   -64.7183 -39.0364 -38.8871 -38.8411 -16.5727 -16.1774  -9.2093  -8.4077
    -7.8575  -7.2110  -5.9642  -5.5792  -4.7079  -1.9264  -1.4325  -0.8757
     0.2597

          k = 0.1250 0.4571 0.0000 ( 15930 PWs)   bands (ev):

   -64.7151 -39.0637 -38.8807 -38.8517 -16.3830 -16.0987  -9.3548  -8.6658
    -7.9052  -7.2054  -5.9638  -5.7496  -4.5903  -1.7972  -1.3436  -0.6551
     0.2526

          k = 0.1250 0.5052 0.0000 ( 15927 PWs)   bands (ev):

   -64.7128 -39.0830 -38.8762 -38.8592 -16.2418 -16.0407  -9.4670  -8.8480
    -7.9721  -7.1850  -5.9418  -5.8839  -4.4644  -1.7363  -1.2126  -0.4627
     0.1956

          k = 0.1250 0.5533 0.0000 ( 15918 PWs)   bands (ev):

   -64.7117 -39.0929 -38.8739 -38.8631 -16.1661 -16.0099  -9.5278  -8.9423
    -8.0177  -7.1678  -5.9590  -5.9245  -4.3801  -1.7299  -1.1031  -0.3323
     0.1290

          k = 0.1667 0.2887 0.0000 ( 15971 PWs)   bands (ev):

   -64.7268 -38.9590 -38.9041 -38.8158 -17.0375 -16.3726  -8.9295  -7.8422
    -7.6674  -7.1964  -5.9484  -5.1557  -4.7576  -2.1542  -1.5373  -1.3907
     0.0990

          k = 0.1667 0.3368 0.0000 ( 15955 PWs)   bands (ev):

   -64.7226 -38.9917 -38.8958 -38.8335 -16.8190 -16.2790  -8.9903  -8.0014
    -7.8175  -7.2988  -6.0763  -5.2775  -4.7651  -2.1133  -1.4745  -1.2469
     0.2373

          k = 0.1667 0.3849 0.0000 ( 15934 PWs)   bands (ev):

   -64.7187 -39.0214 -38.8880 -38.8506 -16.6034 -16.1867  -9.0963  -8.3437
    -7.7821  -7.3128  -6.2268  -5.4478  -4.7066  -1.9916  -1.4082  -1.0677
     0.3236

          k = 0.1667 0.4330 0.0000 ( 15921 PWs)   bands (ev):

   -64.7154 -39.0465 -38.8814 -38.8656 -16.4073 -16.1030  -9.2059  -8.6410
    -7.8000  -7.2809  -6.3308  -5.6366  -4.5982  -1.8505  -1.3281  -0.8836
     0.3589

          k = 0.1667 0.4811 0.0000 ( 15944 PWs)   bands (ev):

   -64.7128 -39.0655 -38.8772 -38.8762 -16.2488 -16.0358  -9.2945  -8.8683
    -7.8723  -7.2257  -6.3730  -5.8128  -4.4616  -1.7858  -1.1897  -0.7222
     0.3535

          k = 0.1667 0.5292 0.0000 ( 15926 PWs)   bands (ev):

   -64.7112 -39.0774 -38.8846 -38.8730 -16.1452 -15.9919  -9.3507  -9.0108
    -7.9484  -7.1722  -6.3812  -5.9425  -4.3398  -1.8015  -1.0292  -0.6085
     0.3298

          k = 0.1667 0.5774 0.0000 ( 15928 PWs)   bands (ev):

   -64.7107 -39.0814 -38.8872 -38.8719 -16.1090 -15.9767  -9.3698  -9.0593
    -7.9797  -7.1494  -6.3813  -5.9914  -4.2897  -1.8195  -0.9575  -0.5666
     0.3170

          k = 0.2083 0.3608 0.0000 ( 15927 PWs)   bands (ev):

   -64.7189 -39.0155 -38.8884 -38.8547 -16.6139 -16.1897  -9.0533  -8.3173
    -7.7472  -7.3546  -6.3300  -5.3972  -4.7078  -2.0151  -1.3993  -1.1400
     0.3487

          k = 0.2083 0.4090 0.0000 ( 15931 PWs)   bands (ev):

   -64.7156 -39.0353 -38.8817 -38.8752 -16.4201 -16.1050  -9.1137  -8.6254
    -7.7076  -7.3286  -6.5739  -5.5667  -4.6076  -1.8827  -1.3169  -1.0170
     0.4255

          k = 0.2083 0.4571 0.0000 ( 15949 PWs)   bands (ev):

   -64.7128 -39.0503 -38.8929 -38.8762 -16.2540 -16.0321  -9.1529  -8.8823
    -7.7467  -7.2582  -6.7406  -5.7549  -4.4686  -1.8270  -1.1706  -0.9052
     0.4751

          k = 0.2083 0.5052 0.0000 ( 15946 PWs)   bands (ev):

   -64.7109 -39.0603 -38.9061 -38.8724 -16.1316 -15.9782  -9.1675  -9.0648
    -7.8459  -7.1729  -6.8166  -5.9250  -4.3189  -1.8750  -0.9705  -0.8235
     0.5038

          k = 0.2083 0.5533 0.0000 ( 15938 PWs)   bands (ev):

   -64.7099 -39.0653 -38.9131 -38.8704 -16.0666 -15.9495  -9.1680  -9.1593
    -7.9261  -7.1107  -6.8402  -6.0316  -4.2159  -1.9381  -0.8253  -0.7812
     0.5166

          k = 0.2500 0.4330 0.0000 ( 15966 PWs)   bands (ev):

   -64.7128 -39.0439 -38.8995 -38.8763 -16.2558 -16.0308  -9.0971  -8.8872
    -7.6688  -7.2705  -6.9083  -5.7325  -4.4725  -1.8427  -1.1634  -0.9707
     0.5203

          k = 0.2500 0.4811 0.0000 ( 15945 PWs)   bands (ev):

   -64.7108 -39.0478 -38.9209 -38.8721 -16.1251 -15.9708  -9.0944  -9.0445
    -7.7169  -7.1729  -7.1461  -5.9131  -4.3099  -1.9202  -0.9403  -0.9390
     0.6046

          k = 0.2500 0.5292 0.0000 ( 15948 PWs)   bands (ev):

   -64.7094 -39.0485 -38.9361 -38.8694 -16.0406 -15.9317  -9.2264  -8.9753
    -7.8455  -7.2420  -7.0741  -6.0649  -4.1631  -2.0370  -0.9257  -0.7366
     0.6642

          k = 0.2500 0.5774 0.0000 ( 15936 PWs)   bands (ev):

   -64.7090 -39.0483 -38.9417 -38.8686 -16.0114 -15.9180  -9.2716  -8.9399
    -7.9161  -7.2614  -7.0292  -6.1281  -4.1012  -2.0923  -0.9216  -0.6544
     0.6857

          k = 0.2917 0.5052 0.0000 ( 15932 PWs)   bands (ev):

   -64.7093 -39.0403 -38.9464 -38.8691 -16.0319 -15.9254  -9.2499  -8.8891
    -7.7655  -7.4519  -7.0592  -6.0779  -4.1433  -2.0755  -0.9763  -0.7058
     0.7185

          k = 0.2917 0.5533 0.0000 ( 15934 PWs)   bands (ev):

   -64.7085 -39.0322 -38.9638 -38.8676 -15.9829 -15.9012  -9.3317  -8.7393
    -7.9324  -7.5412  -6.9682  -6.1957  -4.0267  -2.1961  -0.9985  -0.5580
     0.7850

          k = 0.3333 0.5774 0.0000 ( 15894 PWs)   bands (ev):

   -64.7082 -39.0211 -38.9788 -38.8670 -15.9632 -15.8906  -9.3682  -8.5850
    -8.0616  -7.6180  -6.9174  -6.2548  -3.9691  -2.2643  -1.0247  -0.4909
     0.8296

     the Fermi energy is    -2.1628 ev

!    total energy              =    -184.92360927 Ry
     estimated scf accuracy    <          5.5E-13 Ry
     smearing contrib. (-TS)   =      -0.00176109 Ry
     internal energy E=F+TS    =    -184.92184817 Ry

     The total energy is F=E-TS. E is the sum of the following terms:
     one-electron contribution =   -1382.48260184 Ry
     hartree contribution      =     688.75635518 Ry
     xc contribution           =     -33.42244392 Ry
     ewald contribution        =     542.22684241 Ry

     convergence has been achieved in  16 iterations

     Writing all to output data dir ./mos2.save/ :
     XML data file, charge density, pseudopotentials, collected wavefunctions
 
     init_run     :      1.17s CPU      1.52s WALL (       1 calls)
     electrons    :     42.08s CPU     42.85s WALL (       1 calls)

     Called by init_run:
     wfcinit      :      0.64s CPU      0.66s WALL (       1 calls)
     potinit      :      0.31s CPU      0.47s WALL (       1 calls)
     hinit0       :      0.16s CPU      0.23s WALL (       1 calls)

     Called by electrons:
     c_bands      :     30.01s CPU     30.40s WALL (      16 calls)
     sum_band     :      6.22s CPU      6.32s WALL (      16 calls)
     v_of_rho     :      3.77s CPU      4.01s WALL (      17 calls)
     mix_rho      :      0.43s CPU      0.47s WALL (      16 calls)

     Called by c_bands:
     init_us_2    :      0.52s CPU      0.54s WALL (      66 calls)
     init_us_2:cp :      0.52s CPU      0.54s WALL (      66 calls)
     cegterg      :     26.75s CPU     27.08s WALL (      32 calls)

     Called by *egterg:
     cdiaghg      :      0.05s CPU      0.06s WALL (     127 calls)
     h_psi        :     24.51s CPU     24.80s WALL (     129 calls)
     g_psi        :      0.06s CPU      0.07s WALL (      95 calls)

     Called by h_psi:
     h_psi:calbec :      0.74s CPU      0.75s WALL (     129 calls)
     vloc_psi     :     22.63s CPU     22.89s WALL (     129 calls)
     add_vuspsi   :      0.99s CPU      1.00s WALL (     129 calls)

     General routines
     calbec       :      0.74s CPU      0.75s WALL (     129 calls)
     fft          :      1.51s CPU      1.58s WALL (     170 calls)
     ffts         :      0.10s CPU      0.10s WALL (      16 calls)
     fftw         :     23.46s CPU     23.69s WALL (    3520 calls)
 
     Parallel routines
 
     PWSCF        :     43.38s CPU     45.28s WALL

 
   This run was terminated on:  10:25:35  18Apr2024            

=------------------------------------------------------------------------------=
   JOB DONE.
=------------------------------------------------------------------------------=
