
     Program PWSCF v.7.3 starts on 27Apr2024 at 16:34:25 

     This program is part of the open-source Quantum ESPRESSO suite
     for quantum simulation of materials; please cite
         "P. Giannozzi et al., J. Phys.:Condens. Matter 21 395502 (2009);
         "P. Giannozzi et al., J. Phys.:Condens. Matter 29 465901 (2017);
         "P. Giannozzi et al., J. Chem. Phys. 152 154105 (2020);
          URL http://www.quantum-espresso.org", 
     in publications or presentations arising from this work. More details at
     http://www.quantum-espresso.org/quote

     Parallel version (MPI), running on    48 processors

     MPI processes distributed on     1 nodes
     254423 MiB available memory on the printing compute node when the environment starts
 
     Reading input from sc.in

     Current dimensions of program PWSCF are:
     Max number of different atomic species (ntypx) = 10
     Max number of k-points (npk) =  40000
     Max angular momentum in pseudopotentials (lmaxx) =  4
 
     K-points division:     npool     =      48
     Subspace diagonalization in iterative solution of the eigenvalue problem:
     a serial algorithm will be used

 
     G-vector sticks info
     --------------------
     sticks:   dense  smooth     PW     G-vecs:    dense   smooth      PW
     Sum        1003    1003    283               127553   127553   19429
 
     Using Slab Decomposition
 


     bravais-lattice index     =            4
     lattice parameter (alat)  =       6.0199  a.u.
     unit-cell volume          =     944.6376 (a.u.)^3
     number of atoms/cell      =            3
     number of atomic types    =            2
     number of electrons       =        26.17
     number of Kohn-Sham states=           17
     kinetic-energy cutoff     =     100.0000  Ry
     charge density cutoff     =     400.0000  Ry
     scf convergence threshold =      1.0E-12
     mixing beta               =       0.7000
     number of iterations used =            8  plain     mixing
     Exchange-correlation= PBE
                           (   1   4   3   4   0   0   0)

     celldm(1)=   6.019885  celldm(2)=   0.000000  celldm(3)=   5.000000
     celldm(4)=   0.000000  celldm(5)=   0.000000  celldm(6)=   0.000000

     crystal axes: (cart. coord. in units of alat)
               a(1) = (   1.000000   0.000000   0.000000 )  
               a(2) = (  -0.500000   0.866025   0.000000 )  
               a(3) = (   0.000000   0.000000   5.000000 )  

     reciprocal axes: (cart. coord. in units 2 pi/alat)
               b(1) = (  1.000000  0.577350  0.000000 )  
               b(2) = (  0.000000  1.154701  0.000000 )  
               b(3) = (  0.000000  0.000000  0.200000 )  


     PseudoPot. # 1 for Mo read from file:
     ../pseudo/Mo.UPF
     MD5 check sum: 4e1c3579de4f68baf863f15f5be96aa1
     Pseudo is Norm-conserving + core correction, Zval = 14.0
     Generated using ONCVPSP code by D. R. Hamann
     Using radial grid of 1640 points,  6 beta functions with: 
                l(1) =   0
                l(2) =   0
                l(3) =   1
                l(4) =   1
                l(5) =   2
                l(6) =   2

     PseudoPot. # 2 for S  read from file:
     ../pseudo/S.UPF
     MD5 check sum: a7319d53700e7dada26ada44d0048388
     Pseudo is Norm-conserving + core correction, Zval =  6.0
     Generated using ONCVPSP code by D. R. Hamann
     Using radial grid of 1146 points,  6 beta functions with: 
                l(1) =   0
                l(2) =   0
                l(3) =   1
                l(4) =   1
                l(5) =   2
                l(6) =   2

     atomic species   valence    mass     pseudopotential
     Mo               14.00    95.95000     Mo( 1.00)
     S                 6.00    32.06000     S ( 1.00)

     12 Sym. Ops. (no inversion) found



   Cartesian axes

     site n.     atom                  positions (alat units)
         1        Mo     tau(   1) = (   0.0000000   0.0000000   0.0000000  )
         2        S      tau(   2) = (   0.5000000   0.2886750  -0.4913414  )
         3        S      tau(   3) = (   0.5000000   0.2886750   0.4913414  )

     number of k points=    61  Fermi-Dirac smearing, width (Ry)=  0.0050
                       cart. coord. in units 2pi/alat
        k(    1) = (   0.0000000   0.0000000   0.0000000), wk =   0.0034722
        k(    2) = (   0.0000000   0.0481125   0.0000000), wk =   0.0208333
        k(    3) = (   0.0000000   0.0962250   0.0000000), wk =   0.0208333
        k(    4) = (   0.0000000   0.1443376   0.0000000), wk =   0.0208333
        k(    5) = (   0.0000000   0.1924501   0.0000000), wk =   0.0208333
        k(    6) = (   0.0000000   0.2405626   0.0000000), wk =   0.0208333
        k(    7) = (   0.0000000   0.2886751   0.0000000), wk =   0.0208333
        k(    8) = (   0.0000000   0.3367877   0.0000000), wk =   0.0208333
        k(    9) = (   0.0000000   0.3849002   0.0000000), wk =   0.0208333
        k(   10) = (   0.0000000   0.4330127   0.0000000), wk =   0.0208333
        k(   11) = (   0.0000000   0.4811252   0.0000000), wk =   0.0208333
        k(   12) = (   0.0000000   0.5292377   0.0000000), wk =   0.0208333
        k(   13) = (   0.0000000  -0.5773503   0.0000000), wk =   0.0104167
        k(   14) = (   0.0416667   0.0721688   0.0000000), wk =   0.0208333
        k(   15) = (   0.0416667   0.1202813   0.0000000), wk =   0.0416667
        k(   16) = (   0.0416667   0.1683938   0.0000000), wk =   0.0416667
        k(   17) = (   0.0416667   0.2165064   0.0000000), wk =   0.0416667
        k(   18) = (   0.0416667   0.2646189   0.0000000), wk =   0.0416667
        k(   19) = (   0.0416667   0.3127314   0.0000000), wk =   0.0416667
        k(   20) = (   0.0416667   0.3608439   0.0000000), wk =   0.0416667
        k(   21) = (   0.0416667   0.4089564   0.0000000), wk =   0.0416667
        k(   22) = (   0.0416667   0.4570690   0.0000000), wk =   0.0416667
        k(   23) = (   0.0416667   0.5051815   0.0000000), wk =   0.0416667
        k(   24) = (   0.0416667   0.5532940   0.0000000), wk =   0.0416667
        k(   25) = (   0.0833333   0.1443376   0.0000000), wk =   0.0208333
        k(   26) = (   0.0833333   0.1924501   0.0000000), wk =   0.0416667
        k(   27) = (   0.0833333   0.2405626   0.0000000), wk =   0.0416667
        k(   28) = (   0.0833333   0.2886751   0.0000000), wk =   0.0416667
        k(   29) = (   0.0833333   0.3367877   0.0000000), wk =   0.0416667
        k(   30) = (   0.0833333   0.3849002   0.0000000), wk =   0.0416667
        k(   31) = (   0.0833333   0.4330127   0.0000000), wk =   0.0416667
        k(   32) = (   0.0833333   0.4811252   0.0000000), wk =   0.0416667
        k(   33) = (   0.0833333   0.5292377   0.0000000), wk =   0.0416667
        k(   34) = (   0.0833333   0.5773503   0.0000000), wk =   0.0208333
        k(   35) = (   0.1250000   0.2165064   0.0000000), wk =   0.0208333
        k(   36) = (   0.1250000   0.2646189   0.0000000), wk =   0.0416667
        k(   37) = (   0.1250000   0.3127314   0.0000000), wk =   0.0416667
        k(   38) = (   0.1250000   0.3608439   0.0000000), wk =   0.0416667
        k(   39) = (   0.1250000   0.4089564   0.0000000), wk =   0.0416667
        k(   40) = (   0.1250000   0.4570690   0.0000000), wk =   0.0416667
        k(   41) = (   0.1250000   0.5051815   0.0000000), wk =   0.0416667
        k(   42) = (   0.1250000   0.5532940   0.0000000), wk =   0.0416667
        k(   43) = (   0.1666667   0.2886751   0.0000000), wk =   0.0208333
        k(   44) = (   0.1666667   0.3367877   0.0000000), wk =   0.0416667
        k(   45) = (   0.1666667   0.3849002   0.0000000), wk =   0.0416667
        k(   46) = (   0.1666667   0.4330127   0.0000000), wk =   0.0416667
        k(   47) = (   0.1666667   0.4811252   0.0000000), wk =   0.0416667
        k(   48) = (   0.1666667   0.5292377   0.0000000), wk =   0.0416667
        k(   49) = (   0.1666667   0.5773503   0.0000000), wk =   0.0208333
        k(   50) = (   0.2083333   0.3608439   0.0000000), wk =   0.0208333
        k(   51) = (   0.2083333   0.4089564   0.0000000), wk =   0.0416667
        k(   52) = (   0.2083333   0.4570690   0.0000000), wk =   0.0416667
        k(   53) = (   0.2083333   0.5051815   0.0000000), wk =   0.0416667
        k(   54) = (   0.2083333   0.5532940   0.0000000), wk =   0.0416667
        k(   55) = (   0.2500000   0.4330127   0.0000000), wk =   0.0208333
        k(   56) = (   0.2500000   0.4811252   0.0000000), wk =   0.0416667
        k(   57) = (   0.2500000   0.5292377   0.0000000), wk =   0.0416667
        k(   58) = (   0.2500000   0.5773503   0.0000000), wk =   0.0208333
        k(   59) = (   0.2916667   0.5051815   0.0000000), wk =   0.0208333
        k(   60) = (   0.2916667   0.5532940   0.0000000), wk =   0.0416667
        k(   61) = (   0.3333333   0.5773503   0.0000000), wk =   0.0069444

     Dense  grid:   127553 G-vectors     FFT dimensions: (  40,  40, 192)

     Estimated max dynamical RAM per process >     123.41 MB

     Estimated total dynamical RAM >       4.36 GB
 ----2D----2D----2D----2D----2D----2D----2D----2D----2D----2D----2D----2D
  The code is running with the 2D cutoff
  Please refer to:
  Sohier, T., Calandra, M., & Mauri, F. (2017), 
  Density functional perturbation theory for gated two-dimensional heterostructu
 res:
  Theoretical developments and application to flexural phonons in graphene.
  Physical Review B, 96(7), 75448. https://doi.org/10.1103/PhysRevB.96.075448
 ----2D----2D----2D----2D----2D----2D----2D----2D----2D----2D----2D----2D

     Initial potential from superposition of free atoms

     starting charge      25.9985, renormalised to      26.1700

     negative rho (up, down):  7.079E-06 0.000E+00
     Starting wfcs are   18 randomized atomic wfcs

     total cpu time spent up to now is        7.1 secs

     Self-consistent Calculation

     iteration #  1     ecut=   100.00 Ry     beta= 0.70
     Davidson diagonalization with overlap
     ethr =  1.00E-02,  avg # of iterations =  4.3

     total cpu time spent up to now is       11.2 secs

     total energy              =    -184.12279731 Ry
     estimated scf accuracy    <       1.19463144 Ry

     iteration #  2     ecut=   100.00 Ry     beta= 0.70
     Davidson diagonalization with overlap
     ethr =  4.56E-03,  avg # of iterations =  4.4

     total cpu time spent up to now is       15.3 secs

     total energy              =    -183.03760155 Ry
     estimated scf accuracy    <      16.29668455 Ry

     iteration #  3     ecut=   100.00 Ry     beta= 0.70
     Davidson diagonalization with overlap
     ethr =  4.56E-03,  avg # of iterations =  2.6

     total cpu time spent up to now is       18.7 secs

     total energy              =    -184.91132581 Ry
     estimated scf accuracy    <       0.02656777 Ry

     iteration #  4     ecut=   100.00 Ry     beta= 0.70
     Davidson diagonalization with overlap
     ethr =  1.02E-04,  avg # of iterations =  5.3

     total cpu time spent up to now is       23.3 secs

     total energy              =    -184.92337548 Ry
     estimated scf accuracy    <       0.03474553 Ry

     iteration #  5     ecut=   100.00 Ry     beta= 0.70
     Davidson diagonalization with overlap
     ethr =  1.02E-04,  avg # of iterations =  2.2

     total cpu time spent up to now is       26.4 secs

     total energy              =    -184.92590823 Ry
     estimated scf accuracy    <       0.00482089 Ry

     iteration #  6     ecut=   100.00 Ry     beta= 0.70
     Davidson diagonalization with overlap
     ethr =  1.84E-05,  avg # of iterations =  2.9

     negative rho (up, down):  1.978E-05 0.000E+00

     total cpu time spent up to now is       29.5 secs

     total energy              =    -184.92660125 Ry
     estimated scf accuracy    <       0.00079050 Ry

     iteration #  7     ecut=   100.00 Ry     beta= 0.70
     Davidson diagonalization with overlap
     ethr =  3.02E-06,  avg # of iterations =  2.4

     negative rho (up, down):  1.117E-05 0.000E+00

     total cpu time spent up to now is       32.7 secs

     total energy              =    -184.92663556 Ry
     estimated scf accuracy    <       0.00029052 Ry

     iteration #  8     ecut=   100.00 Ry     beta= 0.70
     Davidson diagonalization with overlap
     ethr =  1.11E-06,  avg # of iterations =  1.5

     total cpu time spent up to now is       35.5 secs

     total energy              =    -184.92660156 Ry
     estimated scf accuracy    <       0.00012486 Ry

     iteration #  9     ecut=   100.00 Ry     beta= 0.70
     Davidson diagonalization with overlap
     ethr =  4.77E-07,  avg # of iterations =  2.6

     total cpu time spent up to now is       38.6 secs

     total energy              =    -184.92662809 Ry
     estimated scf accuracy    <       0.00000395 Ry

     iteration # 10     ecut=   100.00 Ry     beta= 0.70
     Davidson diagonalization with overlap
     ethr =  1.51E-08,  avg # of iterations =  4.0

     negative rho (up, down):  1.938E-07 0.000E+00

     total cpu time spent up to now is       42.3 secs

     total energy              =    -184.92662865 Ry
     estimated scf accuracy    <       0.00000205 Ry

     iteration # 11     ecut=   100.00 Ry     beta= 0.70
     Davidson diagonalization with overlap
     ethr =  7.85E-09,  avg # of iterations =  2.0

     negative rho (up, down):  3.104E-08 0.000E+00

     total cpu time spent up to now is       45.2 secs

     total energy              =    -184.92662873 Ry
     estimated scf accuracy    <       0.00000018 Ry

     iteration # 12     ecut=   100.00 Ry     beta= 0.70
     Davidson diagonalization with overlap
     ethr =  7.05E-10,  avg # of iterations =  3.9

     total cpu time spent up to now is       48.7 secs

     total energy              =    -184.92662880 Ry
     estimated scf accuracy    <       0.00000003 Ry

     iteration # 13     ecut=   100.00 Ry     beta= 0.70
     Davidson diagonalization with overlap
     ethr =  1.32E-10,  avg # of iterations =  2.5

     total cpu time spent up to now is       51.9 secs

     total energy              =    -184.92662881 Ry
     estimated scf accuracy    <          1.0E-09 Ry

     iteration # 14     ecut=   100.00 Ry     beta= 0.70
     Davidson diagonalization with overlap
     ethr =  3.82E-12,  avg # of iterations =  4.0

     total cpu time spent up to now is       55.5 secs

     total energy              =    -184.92662881 Ry
     estimated scf accuracy    <          8.5E-10 Ry

     iteration # 15     ecut=   100.00 Ry     beta= 0.70
     Davidson diagonalization with overlap
     ethr =  3.26E-12,  avg # of iterations =  2.2

     total cpu time spent up to now is       58.6 secs

     total energy              =    -184.92662881 Ry
     estimated scf accuracy    <          1.3E-12 Ry

     iteration # 16     ecut=   100.00 Ry     beta= 0.70
     Davidson diagonalization with overlap
     ethr =  1.00E-13,  avg # of iterations =  4.2

     total cpu time spent up to now is       62.5 secs

     total energy              =    -184.92662881 Ry
     estimated scf accuracy    <          2.5E-11 Ry

     iteration # 17     ecut=   100.00 Ry     beta= 0.70
     Davidson diagonalization with overlap
     ethr =  1.00E-13,  avg # of iterations =  2.0

     total cpu time spent up to now is       65.6 secs

     End of self-consistent calculation

          k = 0.0000 0.0000 0.0000 ( 15995 PWs)   bands (ev):

   -64.5280 -38.7312 -38.5222 -38.5222 -17.8739 -16.6120  -9.4574  -6.3302
    -6.3302  -5.8231  -5.2466  -5.2466  -3.9282  -1.0272  -1.0272  -0.8037
    -0.8037

          k = 0.0000 0.0481 0.0000 ( 16053 PWs)   bands (ev):

   -64.5274 -38.7299 -38.5286 -38.5236 -17.8482 -16.6010  -9.4276  -6.3913
    -6.3037  -5.9363  -5.2897  -5.1715  -3.9334  -1.0743  -0.9802  -0.9091
    -0.8333

          k = 0.0000 0.0962 0.0000 ( 16041 PWs)   bands (ev):

   -64.5255 -38.7262 -38.5474 -38.5279 -17.7724 -16.5685  -9.3410  -6.5628
    -6.2257  -6.1769  -5.4103  -5.0525  -3.9551  -1.1803  -1.1523  -0.9160
    -0.8495

          k = 0.0000 0.1443 0.0000 ( 16007 PWs)   bands (ev):

   -64.5226 -38.7204 -38.5772 -38.5347 -17.6492 -16.5157  -9.2071  -6.8137
    -6.4606  -6.1005  -5.5871  -4.9897  -4.0118  -1.4236  -1.2695  -1.0366
    -0.6605

          k = 0.0000 0.1925 0.0000 ( 15997 PWs)   bands (ev):

   -64.5188 -38.7127 -38.6159 -38.5436 -17.4837 -16.4450  -9.0450  -7.1032
    -6.7630  -5.9355  -5.7956  -5.0148  -4.1257  -1.6418  -1.2774  -1.1748
    -0.4437

          k = 0.0000 0.2406 0.0000 ( 15985 PWs)   bands (ev):

   -64.5143 -38.7038 -38.6606 -38.5539 -17.2828 -16.3594  -8.8904  -7.3841
    -7.0753  -6.0144  -5.7415  -5.1184  -4.3013  -1.7571  -1.3098  -1.1812
    -0.2260

          k = 0.0000 0.2887 0.0000 ( 15975 PWs)   bands (ev):

   -64.5095 -38.7082 -38.6942 -38.5649 -17.0561 -16.2633  -8.8050  -7.5994
    -7.3908  -6.2272  -5.5323  -5.2658  -4.5042  -1.7611  -1.4238  -0.9985
    -0.0274

          k = 0.0000 0.3368 0.0000 ( 15941 PWs)   bands (ev):

   -64.5047 -38.7554 -38.6846 -38.5759 -16.8155 -16.1625  -8.8508  -7.7057
    -7.6995  -6.4219  -5.4200  -5.3247  -4.6702  -1.6771  -1.5031  -0.7658
     0.1403

          k = 0.0000 0.3849 0.0000 ( 15944 PWs)   bands (ev):

   -64.5002 -38.7992 -38.6757 -38.5861 -16.5761 -16.0635  -9.0103  -7.9872
    -7.7403  -6.5903  -5.5563  -5.1356  -4.7410  -1.5410  -1.5364  -0.5237
     0.2722

          k = 0.0000 0.4330 0.0000 ( 15928 PWs)   bands (ev):

   -64.4964 -38.8365 -38.6680 -38.5948 -16.3562 -15.9742  -9.2078  -8.2364
    -7.7743  -6.7263  -5.6630  -4.9798  -4.7011  -1.5405  -1.3673  -0.3092
     0.3690

          k = 0.0000 0.4811 0.0000 ( 15916 PWs)   bands (ev):

   -64.4934 -38.8650 -38.6620 -38.6015 -16.1766 -15.9027  -9.3849  -8.4298
    -7.8249  -6.8259  -5.7375  -4.8664  -4.5910  -1.5153  -1.1970  -0.1490
     0.4338

          k = 0.0000 0.5292 0.0000 ( 15920 PWs)   bands (ev):

   -64.4915 -38.8828 -38.6583 -38.6058 -16.0580 -15.8563  -9.5057  -8.5525
    -7.8707  -6.8867  -5.7809  -4.7987  -4.4822  -1.4866  -1.0613  -0.0543
     0.4707

          k = 0.0000-0.5774 0.0000 ( 15930 PWs)   bands (ev):

   -64.4909 -38.8889 -38.6570 -38.6072 -16.0164 -15.8402  -9.5486  -8.5946
    -7.8888  -6.9071  -5.7951  -4.7764  -4.4376  -1.4744  -1.0073  -0.0236
     0.4826

          k = 0.0417 0.0722 0.0000 ( 16025 PWs)   bands (ev):

   -64.5261 -38.7274 -38.5411 -38.5266 -17.7975 -16.5793  -9.3694  -6.5072
    -6.2519  -6.1045  -5.3810  -5.0733  -3.9468  -1.1537  -1.0788  -0.8915
    -0.8886

          k = 0.0417 0.1203 0.0000 ( 16007 PWs)   bands (ev):

   -64.5237 -38.7227 -38.5652 -38.5324 -17.6980 -16.5366  -9.2588  -6.7169
    -6.3490  -6.1517  -5.5523  -4.9750  -3.9858  -1.3267  -1.2581  -0.9973
    -0.7230

          k = 0.0417 0.1684 0.0000 ( 15996 PWs)   bands (ev):

   -64.5204 -38.7159 -38.5991 -38.5405 -17.5536 -16.4748  -9.1093  -6.9846
    -6.6251  -6.0097  -5.7710  -4.9431  -4.0713  -1.5653  -1.3146  -1.1286
    -0.5145

          k = 0.0417 0.2165 0.0000 ( 15986 PWs)   bands (ev):

   -64.5162 -38.7076 -38.6403 -38.5505 -17.3703 -16.3965  -8.9474  -7.2673
    -6.9199  -6.0057  -5.8364  -4.9959  -4.2178  -1.7304  -1.2765  -1.2611
    -0.2931

          k = 0.0417 0.2646 0.0000 ( 15967 PWs)   bands (ev):

   -64.5116 -38.6984 -38.6860 -38.5616 -17.1562 -16.3054  -8.8211  -7.5129
    -7.2282  -6.2306  -5.6471  -5.1166  -4.4088  -1.7946  -1.3722  -1.1401
    -0.0829

          k = 0.0417 0.3127 0.0000 ( 15962 PWs)   bands (ev):

   -64.5068 -38.7330 -38.6888 -38.5731 -16.9221 -16.2066  -8.7995  -7.6648
    -7.5421  -6.4291  -5.4621  -5.2715  -4.5878  -1.7704  -1.4417  -0.9322
     0.0993

          k = 0.0417 0.3608 0.0000 ( 15935 PWs)   bands (ev):

   -64.5021 -38.7780 -38.6795 -38.5842 -16.6814 -16.1061  -8.9101  -7.8469
    -7.7181  -6.5939  -5.4285  -5.3046  -4.6831  -1.6947  -1.4507  -0.6904
     0.2425

          k = 0.0417 0.4090 0.0000 ( 15925 PWs)   bands (ev):

   -64.4980 -38.8181 -38.6712 -38.5941 -16.4507 -16.0113  -9.0942  -8.1236
    -7.7435  -6.7237  -5.5665  -5.1820  -4.6611  -1.6125  -1.3831  -0.4505
     0.3409

          k = 0.0417 0.4571 0.0000 ( 15918 PWs)   bands (ev):

   -64.4946 -38.8507 -38.6644 -38.6021 -16.2497 -15.9301  -9.2825  -8.3522
    -7.7873  -6.8196  -5.6741  -5.0788  -4.5596  -1.5472  -1.2529  -0.2418
     0.3929

          k = 0.0417 0.5052 0.0000 ( 15917 PWs)   bands (ev):

   -64.4921 -38.8736 -38.6595 -38.6078 -16.0993 -15.8705  -9.4311  -8.5156
    -7.8401  -6.8829  -5.7467  -4.9970  -4.4412  -1.4995  -1.1092  -0.0845
     0.4055

          k = 0.0417 0.5533 0.0000 ( 15918 PWs)   bands (ev):

   -64.4909 -38.8854 -38.6570 -38.6108 -16.0183 -15.8388  -9.5126  -8.6007
    -7.8752  -6.9144  -5.7830  -4.9524  -4.3624  -1.4737  -1.0110   0.0038
     0.3987

          k = 0.0833 0.1443 0.0000 ( 16015 PWs)   bands (ev):

   -64.5209 -38.7170 -38.5930 -38.5399 -17.5772 -16.4849  -9.1317  -6.9409
    -6.5643  -6.0375  -5.7955  -4.8951  -4.0537  -1.5321  -1.3394  -1.1188
    -0.5304

          k = 0.0833 0.1925 0.0000 ( 15995 PWs)   bands (ev):

   -64.5172 -38.7096 -38.6287 -38.5499 -17.4149 -16.4154  -8.9786  -7.1973
    -6.8034  -6.0806  -5.8948  -4.8737  -4.1736  -1.7106  -1.3618  -1.2445
    -0.3095

          k = 0.0833 0.2406 0.0000 ( 15975 PWs)   bands (ev):

   -64.5129 -38.7010 -38.6701 -38.5617 -17.2181 -16.3313  -8.8356  -7.4402
    -7.0711  -6.3522  -5.7420  -4.9313  -4.3399  -1.8240  -1.3414  -1.2922
    -0.0905

          k = 0.0833 0.2887 0.0000 ( 15957 PWs)   bands (ev):

   -64.5082 -38.7141 -38.6917 -38.5743 -16.9960 -16.2368  -8.7632  -7.6132
    -7.3731  -6.5704  -5.6062  -5.0551  -4.5086  -1.8616  -1.3881  -1.1348
     0.1047

          k = 0.0833 0.3368 0.0000 ( 15958 PWs)   bands (ev):

   -64.5036 -38.7577 -38.6825 -38.5869 -16.7608 -16.1375  -8.8149  -7.6941
    -7.6827  -6.7250  -5.5155  -5.2164  -4.6088  -1.8305  -1.3804  -0.9178
     0.2596

          k = 0.0833 0.3849 0.0000 ( 15936 PWs)   bands (ev):

   -64.4993 -38.7982 -38.6738 -38.5986 -16.5271 -16.0400  -8.9646  -8.0041
    -7.6979  -6.8266  -5.4651  -5.3860  -4.6006  -1.7439  -1.3299  -0.6746
     0.3612

          k = 0.0833 0.4330 0.0000 ( 15917 PWs)   bands (ev):

   -64.4956 -38.8327 -38.6664 -38.6086 -16.3130 -15.9519  -9.1435  -8.2749
    -7.7281  -6.8884  -5.5412  -5.4150  -4.5113  -1.6282  -1.2478  -0.4331
     0.4000

          k = 0.0833 0.4811 0.0000 ( 15928 PWs)   bands (ev):

   -64.4927 -38.8590 -38.6607 -38.6163 -16.1385 -15.8812  -9.3020  -8.4844
    -7.7831  -6.9220  -5.6651  -5.3553  -4.3895  -1.5316  -1.1334  -0.2114
     0.3744

          k = 0.0833 0.5292 0.0000 ( 15912 PWs)   bands (ev):

   -64.4909 -38.8756 -38.6571 -38.6211 -16.0236 -15.8352  -9.4096  -8.6168
    -7.8345  -6.9372  -5.7451  -5.3080  -4.2836  -1.4848  -1.0119  -0.0196
     0.2937

          k = 0.0833 0.5774 0.0000 ( 15928 PWs)   bands (ev):

   -64.4903 -38.8812 -38.6558 -38.6228 -15.9833 -15.8193  -9.4476  -8.6620
    -7.8549  -6.9413  -5.7728  -5.2907  -4.2410  -1.4735  -0.9570   0.1030
     0.2064

          k = 0.1250 0.2165 0.0000 ( 15989 PWs)   bands (ev):

   -64.5133 -38.7019 -38.6641 -38.5622 -17.2390 -16.3400  -8.8412  -7.4117
    -6.9918  -6.4282  -5.7783  -4.8520  -4.3152  -1.8345  -1.3576  -1.3332
    -0.0886

          k = 0.1250 0.2646 0.0000 ( 15967 PWs)   bands (ev):

   -64.5090 -38.7028 -38.6933 -38.5763 -17.0339 -16.2522  -8.7448  -7.5770
    -7.2270  -6.7218  -5.6937  -4.9061  -4.4637  -1.9135  -1.3635  -1.2730
     0.1173

          k = 0.1250 0.3127 0.0000 ( 15951 PWs)   bands (ev):

   -64.5045 -38.7424 -38.6843 -38.5911 -16.8100 -16.1567  -8.7463  -7.6482
    -7.5405  -6.8951  -5.6752  -5.0292  -4.5598  -1.9233  -1.3394  -1.1128
     0.2872

          k = 0.1250 0.3608 0.0000 ( 15960 PWs)   bands (ev):

   -64.5002 -38.7803 -38.6757 -38.6056 -16.5806 -16.0594  -8.8491  -7.8822
    -7.6475  -6.9754  -5.7144  -5.1963  -4.5649  -1.8534  -1.2843  -0.9031
     0.4059

          k = 0.1250 0.4090 0.0000 ( 15947 PWs)   bands (ev):

   -64.4963 -38.8140 -38.6679 -38.6186 -16.3618 -15.9674  -8.9980  -8.1972
    -7.6524  -7.0017  -5.7521  -5.3783  -4.4929  -1.7223  -1.2167  -0.6744
     0.4629

          k = 0.1250 0.4571 0.0000 ( 15930 PWs)   bands (ev):

   -64.4931 -38.8413 -38.6616 -38.6292 -16.1720 -15.8884  -9.1436  -8.4552
    -7.6997  -6.9956  -5.7528  -5.5489  -4.3758  -1.5886  -1.1275  -0.4522
     0.4562

          k = 0.1250 0.5052 0.0000 ( 15927 PWs)   bands (ev):

   -64.4909 -38.8606 -38.6571 -38.6367 -16.0307 -15.8303  -9.2559  -8.6374
    -7.7658  -6.9746  -5.7316  -5.6835  -4.2503  -1.5223  -0.9978  -0.2579
     0.3986

          k = 0.1250 0.5533 0.0000 ( 15918 PWs)   bands (ev):

   -64.4897 -38.8705 -38.6547 -38.6406 -15.9550 -15.7994  -9.3169  -8.7317
    -7.8110  -6.9570  -5.7589  -5.7147  -4.1663  -1.5130  -0.8886  -0.1255
     0.3306

          k = 0.1667 0.2887 0.0000 ( 15971 PWs)   bands (ev):

   -64.5049 -38.7365 -38.6850 -38.5932 -16.8267 -16.1632  -8.7213  -7.6335
    -7.4576  -6.9878  -5.7347  -4.9553  -4.5431  -1.9562  -1.3264  -1.1897
     0.2990

          k = 0.1667 0.3368 0.0000 ( 15955 PWs)   bands (ev):

   -64.5007 -38.7692 -38.6766 -38.6110 -16.6082 -16.0692  -8.7801  -7.7900
    -7.6114  -7.0914  -5.8633  -5.0764  -4.5495  -1.9137  -1.2608  -1.0457
     0.4374

          k = 0.1667 0.3849 0.0000 ( 15934 PWs)   bands (ev):

   -64.4968 -38.7990 -38.6689 -38.6281 -16.3925 -15.9767  -8.8852  -8.1321
    -7.5772  -7.1054  -6.0144  -5.2463  -4.4908  -1.7904  -1.1913  -0.8657
     0.5248

          k = 0.1667 0.4330 0.0000 ( 15921 PWs)   bands (ev):

   -64.4935 -38.8241 -38.6622 -38.6431 -16.1963 -15.8928  -8.9946  -8.4293
    -7.5950  -7.0731  -6.1194  -5.4352  -4.3825  -1.6458  -1.1104  -0.6805
     0.5611

          k = 0.1667 0.4811 0.0000 ( 15944 PWs)   bands (ev):

   -64.4909 -38.8431 -38.6571 -38.6548 -16.0378 -15.8253  -9.0833  -8.6567
    -7.6665  -7.0173  -6.1627  -5.6116  -4.2461  -1.5748  -0.9746  -0.5180
     0.5564

          k = 0.1667 0.5292 0.0000 ( 15926 PWs)   bands (ev):

   -64.4893 -38.8550 -38.6621 -38.6539 -15.9340 -15.7814  -9.1397  -8.7992
    -7.7419  -6.9632  -6.1717  -5.7418  -4.1247  -1.5859  -0.8157  -0.4034
     0.5329

          k = 0.1667 0.5774 0.0000 ( 15928 PWs)   bands (ev):

   -64.4887 -38.8590 -38.6647 -38.6528 -15.8979 -15.7661  -9.1589  -8.8477
    -7.7729  -6.9401  -6.1719  -5.7908  -4.0748  -1.6025  -0.7441  -0.3612
     0.5201

          k = 0.2083 0.3608 0.0000 ( 15927 PWs)   bands (ev):

   -64.4970 -38.7931 -38.6692 -38.6322 -16.4029 -15.9798  -8.8423  -8.1051
    -7.5423  -7.1480  -6.1175  -5.1956  -4.4917  -1.8148  -1.1821  -0.9378
     0.5491

          k = 0.2083 0.4090 0.0000 ( 15931 PWs)   bands (ev):

   -64.4936 -38.8129 -38.6625 -38.6527 -16.2091 -15.8948  -8.9024  -8.4131
    -7.5032  -7.1220  -6.3620  -5.3649  -4.3912  -1.6800  -1.0985  -0.8140
     0.6270

          k = 0.2083 0.4571 0.0000 ( 15949 PWs)   bands (ev):

   -64.4909 -38.8279 -38.6705 -38.6571 -16.0429 -15.8217  -8.9416  -8.6699
    -7.5416  -7.0512  -6.5298  -5.5532  -4.2522  -1.6179  -0.9553  -0.7015
     0.6781

          k = 0.2083 0.5052 0.0000 ( 15946 PWs)   bands (ev):

   -64.4890 -38.8379 -38.6836 -38.6532 -15.9205 -15.7677  -8.9565  -8.8524
    -7.6397  -6.9653  -6.6071  -5.7236  -4.1027  -1.6604  -0.7580  -0.6195
     0.7080

          k = 0.2083 0.5533 0.0000 ( 15938 PWs)   bands (ev):

   -64.4880 -38.8429 -38.6906 -38.6512 -15.8554 -15.7389  -8.9571  -8.9470
    -7.7192  -6.9027  -6.6314  -5.8306  -3.9999  -1.7212  -0.6134  -0.5770
     0.7215

          k = 0.2500 0.4330 0.0000 ( 15966 PWs)   bands (ev):

   -64.4909 -38.8215 -38.6770 -38.6571 -16.0448 -15.8204  -8.8859  -8.6746
    -7.4644  -7.0640  -6.6969  -5.5305  -4.2558  -1.6343  -0.9482  -0.7672
     0.7232

          k = 0.2500 0.4811 0.0000 ( 15945 PWs)   bands (ev):

   -64.4888 -38.8254 -38.6984 -38.6529 -15.9139 -15.7603  -8.8817  -8.8334
    -7.5113  -6.9661  -6.9360  -5.7113  -4.0930  -1.7063  -0.7368  -0.7272
     0.8094

          k = 0.2500 0.5292 0.0000 ( 15948 PWs)   bands (ev):

   -64.4875 -38.8261 -38.7136 -38.6503 -15.8294 -15.7210  -9.0136  -8.7644
    -7.6381  -7.0337  -6.8669  -5.8636  -3.9463  -1.8203  -0.7222  -0.5258
     0.8705

          k = 0.2500 0.5774 0.0000 ( 15936 PWs)   bands (ev):

   -64.4870 -38.8259 -38.7192 -38.6494 -15.8002 -15.7074  -9.0588  -8.7291
    -7.7082  -7.0537  -6.8217  -5.9270  -3.8844  -1.8747  -0.7183  -0.4435
     0.8926

          k = 0.2917 0.5052 0.0000 ( 15932 PWs)   bands (ev):

   -64.4873 -38.8179 -38.7239 -38.6500 -15.8207 -15.7148  -9.0370  -8.6782
    -7.5576  -7.2442  -6.8524  -5.8764  -3.9262  -1.8588  -0.7732  -0.4953
     0.9254

          k = 0.2917 0.5533 0.0000 ( 15934 PWs)   bands (ev):

   -64.4866 -38.8098 -38.7414 -38.6484 -15.7717 -15.6905  -9.1187  -8.5285
    -7.7222  -7.3357  -6.7609  -5.9946  -3.8094  -1.9784  -0.7957  -0.3477
     0.9931

          k = 0.3333 0.5774 0.0000 ( 15894 PWs)   bands (ev):

   -64.4863 -38.7987 -38.7564 -38.6478 -15.7519 -15.6799  -9.1551  -8.3745
    -7.8501  -7.4137  -6.7099  -6.0541  -3.7517  -2.0464  -0.8220  -0.2807
     1.0385

     the Fermi energy is    -1.9478 ev

!    total energy              =    -184.92662881 Ry
     estimated scf accuracy    <          3.8E-13 Ry
     smearing contrib. (-TS)   =      -0.00191998 Ry
     internal energy E=F+TS    =    -184.92470883 Ry

     The total energy is F=E-TS. E is the sum of the following terms:
     one-electron contribution =   -1382.88811446 Ry
     hartree contribution      =     689.16889176 Ry
     xc contribution           =     -33.43232854 Ry
     ewald contribution        =     542.22684241 Ry

     convergence has been achieved in  17 iterations

     Writing all to output data dir ./mos2.save/ :
     XML data file, charge density, pseudopotentials, collected wavefunctions
 
     init_run     :      1.41s CPU      3.44s WALL (       1 calls)
     electrons    :     56.64s CPU     58.59s WALL (       1 calls)

     Called by init_run:
     wfcinit      :      0.88s CPU      1.66s WALL (       1 calls)
     potinit      :      0.29s CPU      0.47s WALL (       1 calls)
     hinit0       :      0.17s CPU      0.69s WALL (       1 calls)

     Called by electrons:
     c_bands      :     41.98s CPU     43.14s WALL (      17 calls)
     sum_band     :      9.09s CPU      9.23s WALL (      17 calls)
     v_of_rho     :      4.00s CPU      4.13s WALL (      18 calls)
     mix_rho      :      0.55s CPU      0.56s WALL (      17 calls)

     Called by c_bands:
     init_us_2    :      0.72s CPU      0.74s WALL (      70 calls)
     init_us_2:cp :      0.72s CPU      0.74s WALL (      70 calls)
     cegterg      :     36.93s CPU     37.63s WALL (      34 calls)

     Called by *egterg:
     cdiaghg      :      0.06s CPU      0.08s WALL (     138 calls)
     h_psi        :     33.76s CPU     34.43s WALL (     140 calls)
     g_psi        :      0.11s CPU      0.11s WALL (     104 calls)

     Called by h_psi:
     h_psi:calbec :      1.15s CPU      1.16s WALL (     140 calls)
     vloc_psi     :     30.71s CPU     31.28s WALL (     140 calls)
     add_vuspsi   :      1.60s CPU      1.62s WALL (     140 calls)

     General routines
     calbec       :      1.15s CPU      1.16s WALL (     140 calls)
     fft          :      1.49s CPU      1.55s WALL (     180 calls)
     ffts         :      0.12s CPU      0.12s WALL (      17 calls)
     fftw         :     26.58s CPU     27.05s WALL (    3672 calls)
 
     Parallel routines
 
     PWSCF        :     58.19s CPU   1m 6.05s WALL

 
   This run was terminated on:  16:35:31  27Apr2024            

=------------------------------------------------------------------------------=
   JOB DONE.
=------------------------------------------------------------------------------=
