
     Program PWSCF v.7.3 starts on 19Apr2024 at 10:23:54 

     This program is part of the open-source Quantum ESPRESSO suite
     for quantum simulation of materials; please cite
         "P. Giannozzi et al., J. Phys.:Condens. Matter 21 395502 (2009);
         "P. Giannozzi et al., J. Phys.:Condens. Matter 29 465901 (2017);
         "P. Giannozzi et al., J. Chem. Phys. 152 154105 (2020);
          URL http://www.quantum-espresso.org", 
     in publications or presentations arising from this work. More details at
     http://www.quantum-espresso.org/quote

     Parallel version (MPI), running on    48 processors

     MPI processes distributed on     1 nodes
     254288 MiB available memory on the printing compute node when the environment starts
 
     Reading input from sc.in

     Current dimensions of program PWSCF are:
     Max number of different atomic species (ntypx) = 10
     Max number of k-points (npk) =  40000
     Max angular momentum in pseudopotentials (lmaxx) =  4
 
     K-points division:     npool     =      48
     Subspace diagonalization in iterative solution of the eigenvalue problem:
     a serial algorithm will be used

 
     G-vector sticks info
     --------------------
     sticks:   dense  smooth     PW     G-vecs:    dense   smooth      PW
     Sum        1003    1003    283               127553   127553   19429
 
     Using Slab Decomposition
 


     bravais-lattice index     =            4
     lattice parameter (alat)  =       6.0199  a.u.
     unit-cell volume          =     944.6376 (a.u.)^3
     number of atoms/cell      =            3
     number of atomic types    =            2
     number of electrons       =        26.14
     number of Kohn-Sham states=           17
     kinetic-energy cutoff     =     100.0000  Ry
     charge density cutoff     =     400.0000  Ry
     scf convergence threshold =      1.0E-12
     mixing beta               =       0.7000
     number of iterations used =            8  plain     mixing
     Exchange-correlation= PBE
                           (   1   4   3   4   0   0   0)

     celldm(1)=   6.019885  celldm(2)=   0.000000  celldm(3)=   5.000000
     celldm(4)=   0.000000  celldm(5)=   0.000000  celldm(6)=   0.000000

     crystal axes: (cart. coord. in units of alat)
               a(1) = (   1.000000   0.000000   0.000000 )  
               a(2) = (  -0.500000   0.866025   0.000000 )  
               a(3) = (   0.000000   0.000000   5.000000 )  

     reciprocal axes: (cart. coord. in units 2 pi/alat)
               b(1) = (  1.000000  0.577350  0.000000 )  
               b(2) = (  0.000000  1.154701  0.000000 )  
               b(3) = (  0.000000  0.000000  0.200000 )  


     PseudoPot. # 1 for Mo read from file:
     ../pseudo/Mo.UPF
     MD5 check sum: 4e1c3579de4f68baf863f15f5be96aa1
     Pseudo is Norm-conserving + core correction, Zval = 14.0
     Generated using ONCVPSP code by D. R. Hamann
     Using radial grid of 1640 points,  6 beta functions with: 
                l(1) =   0
                l(2) =   0
                l(3) =   1
                l(4) =   1
                l(5) =   2
                l(6) =   2

     PseudoPot. # 2 for S  read from file:
     ../pseudo/S.UPF
     MD5 check sum: a7319d53700e7dada26ada44d0048388
     Pseudo is Norm-conserving + core correction, Zval =  6.0
     Generated using ONCVPSP code by D. R. Hamann
     Using radial grid of 1146 points,  6 beta functions with: 
                l(1) =   0
                l(2) =   0
                l(3) =   1
                l(4) =   1
                l(5) =   2
                l(6) =   2

     atomic species   valence    mass     pseudopotential
     Mo               14.00    95.95000     Mo( 1.00)
     S                 6.00    32.06000     S ( 1.00)

     12 Sym. Ops. (no inversion) found



   Cartesian axes

     site n.     atom                  positions (alat units)
         1        Mo     tau(   1) = (   0.0000000   0.0000000   0.0000000  )
         2        S      tau(   2) = (   0.5000000   0.2886750  -0.4913414  )
         3        S      tau(   3) = (   0.5000000   0.2886750   0.4913414  )

     number of k points=    61  Fermi-Dirac smearing, width (Ry)=  0.0050
                       cart. coord. in units 2pi/alat
        k(    1) = (   0.0000000   0.0000000   0.0000000), wk =   0.0034722
        k(    2) = (   0.0000000   0.0481125   0.0000000), wk =   0.0208333
        k(    3) = (   0.0000000   0.0962250   0.0000000), wk =   0.0208333
        k(    4) = (   0.0000000   0.1443376   0.0000000), wk =   0.0208333
        k(    5) = (   0.0000000   0.1924501   0.0000000), wk =   0.0208333
        k(    6) = (   0.0000000   0.2405626   0.0000000), wk =   0.0208333
        k(    7) = (   0.0000000   0.2886751   0.0000000), wk =   0.0208333
        k(    8) = (   0.0000000   0.3367877   0.0000000), wk =   0.0208333
        k(    9) = (   0.0000000   0.3849002   0.0000000), wk =   0.0208333
        k(   10) = (   0.0000000   0.4330127   0.0000000), wk =   0.0208333
        k(   11) = (   0.0000000   0.4811252   0.0000000), wk =   0.0208333
        k(   12) = (   0.0000000   0.5292377   0.0000000), wk =   0.0208333
        k(   13) = (   0.0000000  -0.5773503   0.0000000), wk =   0.0104167
        k(   14) = (   0.0416667   0.0721688   0.0000000), wk =   0.0208333
        k(   15) = (   0.0416667   0.1202813   0.0000000), wk =   0.0416667
        k(   16) = (   0.0416667   0.1683938   0.0000000), wk =   0.0416667
        k(   17) = (   0.0416667   0.2165064   0.0000000), wk =   0.0416667
        k(   18) = (   0.0416667   0.2646189   0.0000000), wk =   0.0416667
        k(   19) = (   0.0416667   0.3127314   0.0000000), wk =   0.0416667
        k(   20) = (   0.0416667   0.3608439   0.0000000), wk =   0.0416667
        k(   21) = (   0.0416667   0.4089564   0.0000000), wk =   0.0416667
        k(   22) = (   0.0416667   0.4570690   0.0000000), wk =   0.0416667
        k(   23) = (   0.0416667   0.5051815   0.0000000), wk =   0.0416667
        k(   24) = (   0.0416667   0.5532940   0.0000000), wk =   0.0416667
        k(   25) = (   0.0833333   0.1443376   0.0000000), wk =   0.0208333
        k(   26) = (   0.0833333   0.1924501   0.0000000), wk =   0.0416667
        k(   27) = (   0.0833333   0.2405626   0.0000000), wk =   0.0416667
        k(   28) = (   0.0833333   0.2886751   0.0000000), wk =   0.0416667
        k(   29) = (   0.0833333   0.3367877   0.0000000), wk =   0.0416667
        k(   30) = (   0.0833333   0.3849002   0.0000000), wk =   0.0416667
        k(   31) = (   0.0833333   0.4330127   0.0000000), wk =   0.0416667
        k(   32) = (   0.0833333   0.4811252   0.0000000), wk =   0.0416667
        k(   33) = (   0.0833333   0.5292377   0.0000000), wk =   0.0416667
        k(   34) = (   0.0833333   0.5773503   0.0000000), wk =   0.0208333
        k(   35) = (   0.1250000   0.2165064   0.0000000), wk =   0.0208333
        k(   36) = (   0.1250000   0.2646189   0.0000000), wk =   0.0416667
        k(   37) = (   0.1250000   0.3127314   0.0000000), wk =   0.0416667
        k(   38) = (   0.1250000   0.3608439   0.0000000), wk =   0.0416667
        k(   39) = (   0.1250000   0.4089564   0.0000000), wk =   0.0416667
        k(   40) = (   0.1250000   0.4570690   0.0000000), wk =   0.0416667
        k(   41) = (   0.1250000   0.5051815   0.0000000), wk =   0.0416667
        k(   42) = (   0.1250000   0.5532940   0.0000000), wk =   0.0416667
        k(   43) = (   0.1666667   0.2886751   0.0000000), wk =   0.0208333
        k(   44) = (   0.1666667   0.3367877   0.0000000), wk =   0.0416667
        k(   45) = (   0.1666667   0.3849002   0.0000000), wk =   0.0416667
        k(   46) = (   0.1666667   0.4330127   0.0000000), wk =   0.0416667
        k(   47) = (   0.1666667   0.4811252   0.0000000), wk =   0.0416667
        k(   48) = (   0.1666667   0.5292377   0.0000000), wk =   0.0416667
        k(   49) = (   0.1666667   0.5773503   0.0000000), wk =   0.0208333
        k(   50) = (   0.2083333   0.3608439   0.0000000), wk =   0.0208333
        k(   51) = (   0.2083333   0.4089564   0.0000000), wk =   0.0416667
        k(   52) = (   0.2083333   0.4570690   0.0000000), wk =   0.0416667
        k(   53) = (   0.2083333   0.5051815   0.0000000), wk =   0.0416667
        k(   54) = (   0.2083333   0.5532940   0.0000000), wk =   0.0416667
        k(   55) = (   0.2500000   0.4330127   0.0000000), wk =   0.0208333
        k(   56) = (   0.2500000   0.4811252   0.0000000), wk =   0.0416667
        k(   57) = (   0.2500000   0.5292377   0.0000000), wk =   0.0416667
        k(   58) = (   0.2500000   0.5773503   0.0000000), wk =   0.0208333
        k(   59) = (   0.2916667   0.5051815   0.0000000), wk =   0.0208333
        k(   60) = (   0.2916667   0.5532940   0.0000000), wk =   0.0416667
        k(   61) = (   0.3333333   0.5773503   0.0000000), wk =   0.0069444

     Dense  grid:   127553 G-vectors     FFT dimensions: (  40,  40, 192)

     Estimated max dynamical RAM per process >     123.41 MB

     Estimated total dynamical RAM >       4.36 GB
 ----2D----2D----2D----2D----2D----2D----2D----2D----2D----2D----2D----2D
  The code is running with the 2D cutoff
  Please refer to:
  Sohier, T., Calandra, M., & Mauri, F. (2017), 
  Density functional perturbation theory for gated two-dimensional heterostructu
 res:
  Theoretical developments and application to flexural phonons in graphene.
  Physical Review B, 96(7), 75448. https://doi.org/10.1103/PhysRevB.96.075448
 ----2D----2D----2D----2D----2D----2D----2D----2D----2D----2D----2D----2D

     Initial potential from superposition of free atoms

     starting charge      25.9985, renormalised to      26.1400

     negative rho (up, down):  7.071E-06 0.000E+00
     Starting wfcs are   18 randomized atomic wfcs

     total cpu time spent up to now is        5.1 secs

     Self-consistent Calculation

     iteration #  1     ecut=   100.00 Ry     beta= 0.70
     Davidson diagonalization with overlap
     ethr =  1.00E-02,  avg # of iterations =  3.9

     total cpu time spent up to now is        8.9 secs

     total energy              =    -184.25809040 Ry
     estimated scf accuracy    <       1.00077435 Ry

     iteration #  2     ecut=   100.00 Ry     beta= 0.70
     Davidson diagonalization with overlap
     ethr =  3.83E-03,  avg # of iterations =  4.1

     total cpu time spent up to now is       12.9 secs

     total energy              =    -183.25275610 Ry
     estimated scf accuracy    <      14.02554372 Ry

     iteration #  3     ecut=   100.00 Ry     beta= 0.70
     Davidson diagonalization with overlap
     ethr =  3.83E-03,  avg # of iterations =  2.7

     total cpu time spent up to now is       16.3 secs

     total energy              =    -184.91036529 Ry
     estimated scf accuracy    <       0.03180475 Ry

     iteration #  4     ecut=   100.00 Ry     beta= 0.70
     Davidson diagonalization with overlap
     ethr =  1.22E-04,  avg # of iterations =  4.8

     total cpu time spent up to now is       20.5 secs

     total energy              =    -184.92047845 Ry
     estimated scf accuracy    <       0.01847451 Ry

     iteration #  5     ecut=   100.00 Ry     beta= 0.70
     Davidson diagonalization with overlap
     ethr =  7.07E-05,  avg # of iterations =  2.0

     total cpu time spent up to now is       23.5 secs

     total energy              =    -184.92115588 Ry
     estimated scf accuracy    <       0.00411015 Ry

     iteration #  6     ecut=   100.00 Ry     beta= 0.70
     Davidson diagonalization with overlap
     ethr =  1.57E-05,  avg # of iterations =  2.6

     total cpu time spent up to now is       26.5 secs

     total energy              =    -184.92188629 Ry
     estimated scf accuracy    <       0.00055135 Ry

     iteration #  7     ecut=   100.00 Ry     beta= 0.70
     Davidson diagonalization with overlap
     ethr =  2.11E-06,  avg # of iterations =  2.8

     total cpu time spent up to now is       29.7 secs

     total energy              =    -184.92197345 Ry
     estimated scf accuracy    <       0.00000364 Ry

     iteration #  8     ecut=   100.00 Ry     beta= 0.70
     Davidson diagonalization with overlap
     ethr =  1.39E-08,  avg # of iterations =  4.6

     negative rho (up, down):  1.048E-06 0.000E+00

     total cpu time spent up to now is       33.8 secs

     total energy              =    -184.92197724 Ry
     estimated scf accuracy    <       0.00000348 Ry

     iteration #  9     ecut=   100.00 Ry     beta= 0.70
     Davidson diagonalization with overlap
     ethr =  1.33E-08,  avg # of iterations =  2.1

     total cpu time spent up to now is       37.2 secs

     total energy              =    -184.92197757 Ry
     estimated scf accuracy    <       0.00000223 Ry

     iteration # 10     ecut=   100.00 Ry     beta= 0.70
     Davidson diagonalization with overlap
     ethr =  8.54E-09,  avg # of iterations =  2.0

     total cpu time spent up to now is       40.3 secs

     total energy              =    -184.92197792 Ry
     estimated scf accuracy    <       0.00000002 Ry

     iteration # 11     ecut=   100.00 Ry     beta= 0.70
     Davidson diagonalization with overlap
     ethr =  6.16E-11,  avg # of iterations =  4.6

     total cpu time spent up to now is       44.7 secs

     total energy              =    -184.92197793 Ry
     estimated scf accuracy    <          3.1E-09 Ry

     iteration # 12     ecut=   100.00 Ry     beta= 0.70
     Davidson diagonalization with overlap
     ethr =  1.17E-11,  avg # of iterations =  1.8

     total cpu time spent up to now is       47.5 secs

     total energy              =    -184.92197793 Ry
     estimated scf accuracy    <          2.5E-09 Ry

     iteration # 13     ecut=   100.00 Ry     beta= 0.70
     Davidson diagonalization with overlap
     ethr =  9.57E-12,  avg # of iterations =  2.0

     total cpu time spent up to now is       50.7 secs

     total energy              =    -184.92197793 Ry
     estimated scf accuracy    <          5.7E-11 Ry

     iteration # 14     ecut=   100.00 Ry     beta= 0.70
     Davidson diagonalization with overlap
     ethr =  2.18E-13,  avg # of iterations =  5.0

     total cpu time spent up to now is       54.9 secs

     total energy              =    -184.92197793 Ry
     estimated scf accuracy    <          6.8E-12 Ry

     iteration # 15     ecut=   100.00 Ry     beta= 0.70
     Davidson diagonalization with overlap
     ethr =  1.00E-13,  avg # of iterations =  1.4

     total cpu time spent up to now is       57.6 secs

     total energy              =    -184.92197793 Ry
     estimated scf accuracy    <          6.9E-12 Ry

     iteration # 16     ecut=   100.00 Ry     beta= 0.70
     Davidson diagonalization with overlap
     ethr =  1.00E-13,  avg # of iterations =  1.0

     total cpu time spent up to now is       60.3 secs

     total energy              =    -184.92197793 Ry
     estimated scf accuracy    <          1.1E-12 Ry

     iteration # 17     ecut=   100.00 Ry     beta= 0.70
     Davidson diagonalization with overlap
     ethr =  1.00E-13,  avg # of iterations =  1.0

     total cpu time spent up to now is       63.0 secs

     End of self-consistent calculation

          k = 0.0000 0.0000 0.0000 ( 15995 PWs)   bands (ev):

   -64.8661 -39.0650 -38.8611 -38.8611 -18.1947 -16.9289  -9.7669  -6.6614
    -6.6614  -6.1025  -5.5746  -5.5746  -4.2236  -1.3520  -1.3520  -1.1273
    -1.1273

          k = 0.0000 0.0481 0.0000 ( 16053 PWs)   bands (ev):

   -64.8654 -39.0638 -38.8675 -38.8625 -18.1691 -16.9180  -9.7371  -6.7224
    -6.6348  -6.2248  -5.6177  -5.4904  -4.2299  -1.3971  -1.3050  -1.2234
    -1.1569

          k = 0.0000 0.0962 0.0000 ( 16041 PWs)   bands (ev):

   -64.8636 -39.0601 -38.8863 -38.8668 -18.0932 -16.8856  -9.6506  -6.8933
    -6.5566  -6.4753  -5.7382  -5.3617  -4.2554  -1.4986  -1.4538  -1.2399
    -1.1742

          k = 0.0000 0.1443 0.0000 ( 16007 PWs)   bands (ev):

   -64.8606 -39.0543 -38.9161 -38.8736 -17.9700 -16.8331  -9.5168  -7.1433
    -6.7655  -6.4311  -5.9148  -5.2931  -4.3179  -1.7174  -1.5822  -1.3609
    -0.9852

          k = 0.0000 0.1925 0.0000 ( 15997 PWs)   bands (ev):

   -64.8568 -39.0466 -38.9547 -38.8825 -17.8045 -16.7626  -9.3550  -7.4313
    -7.0724  -6.2656  -6.1232  -5.3155  -4.4384  -1.9319  -1.5841  -1.4996
    -0.7681

          k = 0.0000 0.2406 0.0000 ( 15985 PWs)   bands (ev):

   -64.8523 -39.0377 -38.9994 -38.8927 -17.6037 -16.6774  -9.2017  -7.7098
    -7.3879  -6.3419  -6.0709  -5.4182  -4.6197  -2.0469  -1.6356  -1.4825
    -0.5501

          k = 0.0000 0.2887 0.0000 ( 15975 PWs)   bands (ev):

   -64.8475 -39.0470 -39.0281 -38.9038 -17.3770 -16.5818  -9.1194  -7.9207
    -7.7056  -6.5545  -5.8608  -5.5656  -4.8262  -2.0541  -1.7508  -1.2957
    -0.3510

          k = 0.0000 0.3368 0.0000 ( 15941 PWs)   bands (ev):

   -64.8427 -39.0942 -39.0185 -38.9147 -17.1364 -16.4814  -9.1693  -8.0219
    -8.0158  -6.7492  -5.7202  -5.6520  -4.9938  -1.9756  -1.8316  -1.0615
    -0.1828

          k = 0.0000 0.3849 0.0000 ( 15944 PWs)   bands (ev):

   -64.8383 -39.1379 -39.0096 -38.9250 -16.8972 -16.3829  -9.3314  -8.3042
    -8.0537  -6.9174  -5.8571  -5.4616  -5.0646  -1.8713  -1.8417  -0.8203
    -0.0503

          k = 0.0000 0.4330 0.0000 ( 15928 PWs)   bands (ev):

   -64.8344 -39.1752 -39.0019 -38.9337 -16.6774 -16.2941  -9.5296  -8.5538
    -8.0874  -7.0533  -5.9646  -5.3044  -5.0236  -1.8727  -1.6797  -0.6084
     0.0469

          k = 0.0000 0.4811 0.0000 ( 15916 PWs)   bands (ev):

   -64.8315 -39.2037 -38.9960 -38.9404 -16.4979 -16.2229  -9.7065  -8.7473
    -8.1387  -7.1530  -6.0396  -5.1898  -4.9121  -1.8491  -1.5161  -0.4513
     0.1121

          k = 0.0000 0.5292 0.0000 ( 15920 PWs)   bands (ev):

   -64.8296 -39.2215 -38.9922 -38.9446 -16.3794 -16.1767  -9.8270  -8.8700
    -8.1853  -7.2137  -6.0833  -5.1213  -4.8022  -1.8216  -1.3856  -0.3587
     0.1493

          k = 0.0000-0.5774 0.0000 ( 15930 PWs)   bands (ev):

   -64.8290 -39.2276 -38.9910 -38.9461 -16.3379 -16.1607  -9.8697  -8.9121
    -8.2037  -7.2341  -6.0976  -5.0987  -4.7573  -1.8098  -1.3337  -0.3288
     0.1613

          k = 0.0417 0.0722 0.0000 ( 16025 PWs)   bands (ev):

   -64.8642 -39.0613 -38.8800 -38.8655 -18.1183 -16.8963  -9.6789  -6.8379
    -6.5829  -6.4006  -5.7088  -5.3848  -4.2458  -1.4735  -1.3832  -1.2152
    -1.2131

          k = 0.0417 0.1203 0.0000 ( 16007 PWs)   bands (ev):

   -64.8618 -39.0566 -38.9041 -38.8713 -18.0188 -16.8539  -9.5684  -7.0469
    -6.6515  -6.4824  -5.8798  -5.2807  -4.2897  -1.6229  -1.5738  -1.3211
    -1.0465

          k = 0.0417 0.1684 0.0000 ( 15996 PWs)   bands (ev):

   -64.8584 -39.0498 -38.9380 -38.8794 -17.8744 -16.7923  -9.4191  -7.3135
    -6.9324  -6.3399  -6.0979  -5.2456  -4.3814  -1.8567  -1.6252  -1.4525
    -0.8368

          k = 0.0417 0.2165 0.0000 ( 15986 PWs)   bands (ev):

   -64.8543 -39.0415 -38.9792 -38.8894 -17.6911 -16.7143  -9.2579  -7.5943
    -7.2310  -6.3319  -6.1660  -5.2972  -4.5342  -2.0206  -1.5854  -1.5820
    -0.6142

          k = 0.0417 0.2646 0.0000 ( 15967 PWs)   bands (ev):

   -64.8496 -39.0323 -39.0248 -38.9005 -17.4771 -16.6237  -9.1337  -7.8365
    -7.5422  -6.5562  -5.9757  -5.4179  -4.7297  -2.0872  -1.6968  -1.4412
    -0.4032

          k = 0.0417 0.3127 0.0000 ( 15962 PWs)   bands (ev):

   -64.8448 -39.0718 -39.0227 -38.9120 -17.2430 -16.5253  -9.1160  -7.9834
    -7.8580  -6.7544  -5.7896  -5.5731  -4.9114  -2.0694  -1.7659  -1.2308
    -0.2206

          k = 0.0417 0.3608 0.0000 ( 15935 PWs)   bands (ev):

   -64.8402 -39.1168 -39.0134 -38.9231 -17.0024 -16.4253  -9.2302  -8.1640
    -8.0324  -6.9191  -5.7306  -5.6306  -5.0077  -2.0040  -1.7726  -0.9886
    -0.0771

          k = 0.0417 0.4090 0.0000 ( 15925 PWs)   bands (ev):

   -64.8360 -39.1568 -39.0051 -38.9330 -16.7719 -16.3310  -9.4158  -8.4413
    -8.0564  -7.0491  -5.8690  -5.5064  -4.9854  -1.9341  -1.7016  -0.7505
     0.0212

          k = 0.0417 0.4571 0.0000 ( 15918 PWs)   bands (ev):

   -64.8326 -39.1894 -38.9983 -38.9410 -16.5710 -16.2502  -9.6042  -8.6701
    -8.1006  -7.1453  -5.9768  -5.4016  -4.8829  -1.8764  -1.5725  -0.5443
     0.0733

          k = 0.0417 0.5052 0.0000 ( 15917 PWs)   bands (ev):

   -64.8302 -39.2123 -38.9935 -38.9467 -16.4207 -16.1908  -9.7525  -8.8335
    -8.1544  -7.2088  -6.0495  -5.3186  -4.7633  -1.8322  -1.4324  -0.3892
     0.0860

          k = 0.0417 0.5533 0.0000 ( 15918 PWs)   bands (ev):

   -64.8290 -39.2241 -38.9910 -38.9497 -16.3398 -16.1593  -9.8337  -8.9186
    -8.1900  -7.2404  -6.0858  -5.2735  -4.6838  -1.8080  -1.3373  -0.3020
     0.0791

          k = 0.0833 0.1443 0.0000 ( 16015 PWs)   bands (ev):

   -64.8590 -39.0509 -38.9318 -38.8788 -17.8980 -16.8023  -9.4414  -7.2701
    -6.8705  -6.3678  -6.1223  -5.1986  -4.3629  -1.8243  -1.6522  -1.4421
    -0.8509

          k = 0.0833 0.1925 0.0000 ( 15995 PWs)   bands (ev):

   -64.8553 -39.0435 -38.9676 -38.8888 -17.7357 -16.7332  -9.2888  -7.5251
    -7.1128  -6.4064  -6.2243  -5.1763  -4.4887  -2.0017  -1.6713  -1.5671
    -0.6265

          k = 0.0833 0.2406 0.0000 ( 15975 PWs)   bands (ev):

   -64.8509 -39.0349 -39.0089 -38.9005 -17.5389 -16.6494  -9.1472  -7.7654
    -7.3838  -6.6765  -6.0706  -5.2341  -4.6601  -2.1174  -1.6632  -1.5982
    -0.4048

          k = 0.0833 0.2887 0.0000 ( 15957 PWs)   bands (ev):

   -64.8463 -39.0528 -39.0257 -38.9131 -17.3169 -16.5554  -9.0781  -7.9340
    -7.6888  -6.8931  -5.9335  -5.3586  -4.8323  -2.1603  -1.7093  -1.4383
    -0.2085

          k = 0.0833 0.3368 0.0000 ( 15958 PWs)   bands (ev):

   -64.8417 -39.0965 -39.0164 -38.9257 -17.0817 -16.4565  -9.1338  -8.0117
    -7.9984  -7.0469  -5.8413  -5.5205  -4.9344  -2.1359  -1.7023  -1.2202
    -0.0537

          k = 0.0833 0.3849 0.0000 ( 15936 PWs)   bands (ev):

   -64.8373 -39.1369 -39.0077 -38.9374 -16.8482 -16.3595  -9.2858  -8.3227
    -8.0110  -7.1485  -5.7894  -5.6904  -4.9266  -2.0560  -1.6535  -0.9777
     0.0471

          k = 0.0833 0.4330 0.0000 ( 15917 PWs)   bands (ev):

   -64.8336 -39.1714 -39.0003 -38.9475 -16.6342 -16.2718  -9.4653  -8.5939
    -8.0410  -7.2108  -5.8456  -5.7377  -4.8368  -1.9472  -1.5728  -0.7382
     0.0856

          k = 0.0833 0.4811 0.0000 ( 15928 PWs)   bands (ev):

   -64.8308 -39.1977 -38.9946 -38.9552 -16.4599 -16.2014  -9.6236  -8.8035
    -8.0968  -7.2451  -5.9692  -5.6765  -4.7141  -1.8577  -1.4589  -0.5191
     0.0602

          k = 0.0833 0.5292 0.0000 ( 15912 PWs)   bands (ev):

   -64.8290 -39.2142 -38.9910 -38.9600 -16.3450 -16.1557  -9.7308  -8.9359
    -8.1490  -7.2609  -6.0489  -5.6283  -4.6074  -1.8156  -1.3385  -0.3301
    -0.0191

          k = 0.0833 0.5774 0.0000 ( 15928 PWs)   bands (ev):

   -64.8283 -39.2199 -38.9898 -38.9616 -16.3048 -16.1398  -9.7687  -8.9811
    -8.1698  -7.2652  -6.0765  -5.6106  -4.5645  -1.8059  -1.2844  -0.2105
    -0.1039

          k = 0.1250 0.2165 0.0000 ( 15989 PWs)   bands (ev):

   -64.8514 -39.0358 -39.0029 -38.9011 -17.5598 -16.6581  -9.1525  -7.7375
    -7.3035  -6.7528  -6.1068  -5.1552  -4.6351  -2.1284  -1.6657  -1.6537
    -0.4001

          k = 0.1250 0.2646 0.0000 ( 15967 PWs)   bands (ev):

   -64.8471 -39.0416 -39.0272 -38.9152 -17.3547 -16.5707  -9.0586  -7.8992
    -7.5422  -7.0436  -6.0208  -5.2102  -4.7875  -2.2119  -1.6832  -1.5795
    -0.1911

          k = 0.1250 0.3127 0.0000 ( 15951 PWs)   bands (ev):

   -64.8426 -39.0812 -39.0182 -38.9300 -17.1310 -16.4756  -9.0640  -7.9654
    -7.8592  -7.2142  -6.0008  -5.3343  -4.8862  -2.2262  -1.6609  -1.4184
    -0.0206

          k = 0.1250 0.3608 0.0000 ( 15960 PWs)   bands (ev):

   -64.8383 -39.1190 -39.0096 -38.9445 -16.9017 -16.3788  -9.1697  -8.2023
    -7.9610  -7.2938  -6.0388  -5.5020  -4.8923  -2.1603  -1.6095  -1.2089
     0.0971

          k = 0.1250 0.4090 0.0000 ( 15947 PWs)   bands (ev):

   -64.8344 -39.1527 -39.0018 -38.9574 -16.6829 -16.2872  -9.3197  -8.5178
    -7.9648  -7.3205  -6.0751  -5.6843  -4.8203  -2.0335  -1.5454  -0.9815
     0.1529

          k = 0.1250 0.4571 0.0000 ( 15930 PWs)   bands (ev):

   -64.8312 -39.1800 -38.9955 -38.9681 -16.4933 -16.2086  -9.4653  -8.7759
    -8.0127  -7.3151  -6.0741  -5.8546  -4.7026  -1.9066  -1.4566  -0.7616
     0.1458

          k = 0.1250 0.5052 0.0000 ( 15927 PWs)   bands (ev):

   -64.8290 -39.1993 -38.9910 -38.9756 -16.3521 -16.1507  -9.5773  -8.9581
    -8.0799  -7.2950  -6.0517  -5.9886  -4.5764  -1.8484  -1.3250  -0.5701
     0.0892

          k = 0.1250 0.5533 0.0000 ( 15918 PWs)   bands (ev):

   -64.8278 -39.2092 -38.9887 -38.9795 -16.2765 -16.1200  -9.6380  -9.0524
    -8.1257  -7.2781  -6.0636  -6.0341  -4.4919  -1.8433  -1.2154  -0.4406
     0.0232

          k = 0.1667 0.2887 0.0000 ( 15971 PWs)   bands (ev):

   -64.8429 -39.0753 -39.0189 -38.9321 -17.1476 -16.4821  -9.0385  -7.9513
    -7.7772  -7.3055  -6.0601  -5.2606  -4.8698  -2.2583  -1.6477  -1.4964
    -0.0067

          k = 0.1667 0.3368 0.0000 ( 15955 PWs)   bands (ev):

   -64.8387 -39.1080 -39.0106 -38.9499 -16.9292 -16.3886  -9.1002  -8.1119
    -7.9253  -7.4072  -6.1876  -5.3826  -4.8777  -2.2182  -1.5864  -1.3527
     0.1318

          k = 0.1667 0.3849 0.0000 ( 15934 PWs)   bands (ev):

   -64.8349 -39.1377 -39.0028 -38.9670 -16.7136 -16.2964  -9.2067  -8.4544
    -7.8892  -7.4212  -6.3378  -5.5531  -4.8194  -2.0973  -1.5216  -1.1738
     0.2178

          k = 0.1667 0.4330 0.0000 ( 15921 PWs)   bands (ev):

   -64.8315 -39.1628 -38.9961 -38.9819 -16.5176 -16.2129  -9.3163  -8.7516
    -7.9072  -7.3895  -6.4413  -5.7420  -4.7110  -1.9579  -1.4420  -0.9902
     0.2526

          k = 0.1667 0.4811 0.0000 ( 15944 PWs)   bands (ev):

   -64.8290 -39.1818 -38.9936 -38.9910 -16.3592 -16.1457  -9.4049  -8.9789
    -7.9799  -7.3347  -6.4829  -5.9180  -4.5742  -1.8964  -1.3023  -0.8292
     0.2470

          k = 0.1667 0.5292 0.0000 ( 15926 PWs)   bands (ev):

   -64.8274 -39.1937 -39.0010 -38.9878 -16.2555 -16.1020  -9.4609  -9.1213
    -8.0564  -7.2815  -6.4908  -6.0475  -4.4523  -1.9144  -1.1410  -0.7159
     0.2233

          k = 0.1667 0.5774 0.0000 ( 15928 PWs)   bands (ev):

   -64.8268 -39.1977 -39.0035 -38.9867 -16.2194 -16.0868  -9.4799  -9.1698
    -8.0878  -7.2588  -6.4906  -6.0962  -4.4021  -1.9331  -1.0692  -0.6742
     0.2104

          k = 0.2083 0.3608 0.0000 ( 15927 PWs)   bands (ev):

   -64.8350 -39.1318 -39.0031 -38.9710 -16.7241 -16.2995  -9.1637  -8.4283
    -7.8542  -7.4627  -6.4410  -5.5025  -4.8208  -2.1202  -1.5129  -1.2462
     0.2432

          k = 0.2083 0.4090 0.0000 ( 15931 PWs)   bands (ev):

   -64.8317 -39.1516 -38.9965 -38.9915 -16.5304 -16.2149  -9.2241  -8.7365
    -7.8144  -7.4367  -6.6847  -5.6722  -4.7207  -1.9890  -1.4311  -1.1236
     0.3195

          k = 0.2083 0.4571 0.0000 ( 15949 PWs)   bands (ev):

   -64.8290 -39.1666 -39.0093 -38.9910 -16.3643 -16.1421  -9.2633  -8.9933
    -7.8539  -7.3664  -6.8507  -5.8603  -4.5818  -1.9366  -1.2832  -1.0120
     0.3686

          k = 0.2083 0.5052 0.0000 ( 15946 PWs)   bands (ev):

   -64.8270 -39.1766 -39.0224 -38.9872 -16.2420 -16.0883  -9.2778  -9.1758
    -7.9537  -7.2814  -6.9261  -6.0303  -4.4320  -1.9874  -1.0817  -0.9304
     0.3967

          k = 0.2083 0.5533 0.0000 ( 15938 PWs)   bands (ev):

   -64.8260 -39.1816 -39.0294 -38.9852 -16.1770 -16.0596  -9.2782  -9.2703
    -8.0343  -7.2194  -6.9494  -6.1367  -4.3289  -2.0517  -0.9363  -0.8881
     0.4091

          k = 0.2500 0.4330 0.0000 ( 15966 PWs)   bands (ev):

   -64.8290 -39.1602 -39.0158 -38.9910 -16.3661 -16.1407  -9.2076  -8.9984
    -7.7757  -7.3785  -7.0188  -5.8380  -4.5858  -1.9520  -1.2760  -1.0774
     0.4137

          k = 0.2500 0.4811 0.0000 ( 15945 PWs)   bands (ev):

   -64.8269 -39.1641 -39.0372 -38.9868 -16.2354 -16.0808  -9.2056  -9.1548
    -7.8244  -7.2809  -7.2558  -6.0185  -4.4233  -2.0323  -1.0499  -1.0469
     0.4971

          k = 0.2500 0.5292 0.0000 ( 15948 PWs)   bands (ev):

   -64.8256 -39.1648 -39.0524 -38.9842 -16.1510 -16.0418  -9.3376  -9.0855
    -7.9539  -7.3509  -7.1824  -6.1701  -4.2765  -2.1505  -1.0321  -0.8470
     0.5560

          k = 0.2500 0.5774 0.0000 ( 15936 PWs)   bands (ev):

   -64.8251 -39.1646 -39.0580 -38.9833 -16.1218 -16.0281  -9.3828  -9.0500
    -8.0248  -7.3699  -7.1377  -6.2332  -4.2145  -2.2061  -1.0280  -0.7648
     0.5773

          k = 0.2917 0.5052 0.0000 ( 15932 PWs)   bands (ev):

   -64.8254 -39.1566 -39.0627 -38.9839 -16.1422 -16.0355  -9.3612  -8.9993
    -7.8742  -7.5605  -7.1674  -6.1832  -4.2568  -2.1889  -1.0827  -0.8160
     0.6101

          k = 0.2917 0.5533 0.0000 ( 15934 PWs)   bands (ev):

   -64.8246 -39.1485 -39.0802 -38.9824 -16.0933 -16.0113  -9.4430  -8.8494
    -8.0422  -7.6486  -7.0765  -6.3008  -4.1402  -2.3100  -1.1047  -0.6681
     0.6759

          k = 0.3333 0.5774 0.0000 ( 15894 PWs)   bands (ev):

   -64.8243 -39.1374 -39.0952 -38.9817 -16.0736 -16.0008  -9.4796  -8.6950
    -8.1721  -7.7248  -7.0259  -6.3597  -4.0828  -2.3784  -1.1308  -0.6009
     0.7202

     the Fermi energy is    -2.2764 ev

!    total energy              =    -184.92197793 Ry
     estimated scf accuracy    <          2.9E-13 Ry
     smearing contrib. (-TS)   =      -0.00167526 Ry
     internal energy E=F+TS    =    -184.92030267 Ry

     The total energy is F=E-TS. E is the sum of the following terms:
     one-electron contribution =   -1382.27061267 Ry
     hartree contribution      =     688.54081162 Ry
     xc contribution           =     -33.41734403 Ry
     ewald contribution        =     542.22684241 Ry

     convergence has been achieved in  17 iterations

     Writing all to output data dir ./mos2.save/ :
     XML data file, charge density, pseudopotentials, collected wavefunctions
 
     init_run     :      1.40s CPU      3.05s WALL (       1 calls)
     electrons    :     56.66s CPU     58.97s WALL (       1 calls)

     Called by init_run:
     wfcinit      :      0.87s CPU      1.70s WALL (       1 calls)
     potinit      :      0.29s CPU      0.34s WALL (       1 calls)
     hinit0       :      0.17s CPU      0.59s WALL (       1 calls)

     Called by electrons:
     c_bands      :     42.15s CPU     42.79s WALL (      17 calls)
     sum_band     :      8.94s CPU      9.16s WALL (      17 calls)
     v_of_rho     :      3.95s CPU      4.08s WALL (      18 calls)
     mix_rho      :      0.54s CPU      0.56s WALL (      17 calls)

     Called by c_bands:
     init_us_2    :      0.71s CPU      0.74s WALL (      70 calls)
     init_us_2:cp :      0.71s CPU      0.74s WALL (      70 calls)
     cegterg      :     37.00s CPU     37.56s WALL (      34 calls)

     Called by *egterg:
     cdiaghg      :      0.06s CPU      0.09s WALL (     126 calls)
     h_psi        :     34.09s CPU     34.65s WALL (     128 calls)
     g_psi        :      0.10s CPU      0.11s WALL (      92 calls)

     Called by h_psi:
     h_psi:calbec :      1.09s CPU      1.11s WALL (     128 calls)
     vloc_psi     :     31.16s CPU     31.60s WALL (     128 calls)
     add_vuspsi   :      1.56s CPU      1.58s WALL (     128 calls)

     General routines
     calbec       :      1.09s CPU      1.11s WALL (     128 calls)
     fft          :      1.45s CPU      1.51s WALL (     180 calls)
     ffts         :      0.11s CPU      0.13s WALL (      17 calls)
     fftw         :     27.18s CPU     27.59s WALL (    3696 calls)
 
     Parallel routines
 
     PWSCF        :     58.19s CPU   1m14.23s WALL

 
   This run was terminated on:  10:25: 8  19Apr2024            

=------------------------------------------------------------------------------=
   JOB DONE.
=------------------------------------------------------------------------------=
