
     Program PWSCF v.7.3 starts on 27Apr2024 at 16:37:10 

     This program is part of the open-source Quantum ESPRESSO suite
     for quantum simulation of materials; please cite
         "P. Giannozzi et al., J. Phys.:Condens. Matter 21 395502 (2009);
         "P. Giannozzi et al., J. Phys.:Condens. Matter 29 465901 (2017);
         "P. Giannozzi et al., J. Chem. Phys. 152 154105 (2020);
          URL http://www.quantum-espresso.org", 
     in publications or presentations arising from this work. More details at
     http://www.quantum-espresso.org/quote

     Parallel version (MPI), running on    48 processors

     MPI processes distributed on     1 nodes
     254280 MiB available memory on the printing compute node when the environment starts
 
     Reading input from sc.in

     Current dimensions of program PWSCF are:
     Max number of different atomic species (ntypx) = 10
     Max number of k-points (npk) =  40000
     Max angular momentum in pseudopotentials (lmaxx) =  4
 
     K-points division:     npool     =      48
     Subspace diagonalization in iterative solution of the eigenvalue problem:
     a serial algorithm will be used

 
     G-vector sticks info
     --------------------
     sticks:   dense  smooth     PW     G-vecs:    dense   smooth      PW
     Sum        1003    1003    283               127553   127553   19429
 
     Using Slab Decomposition
 


     bravais-lattice index     =            4
     lattice parameter (alat)  =       6.0199  a.u.
     unit-cell volume          =     944.6376 (a.u.)^3
     number of atoms/cell      =            3
     number of atomic types    =            2
     number of electrons       =        26.16
     number of Kohn-Sham states=           17
     kinetic-energy cutoff     =     100.0000  Ry
     charge density cutoff     =     400.0000  Ry
     scf convergence threshold =      1.0E-12
     mixing beta               =       0.7000
     number of iterations used =            8  plain     mixing
     Exchange-correlation= PBE
                           (   1   4   3   4   0   0   0)

     celldm(1)=   6.019885  celldm(2)=   0.000000  celldm(3)=   5.000000
     celldm(4)=   0.000000  celldm(5)=   0.000000  celldm(6)=   0.000000

     crystal axes: (cart. coord. in units of alat)
               a(1) = (   1.000000   0.000000   0.000000 )  
               a(2) = (  -0.500000   0.866025   0.000000 )  
               a(3) = (   0.000000   0.000000   5.000000 )  

     reciprocal axes: (cart. coord. in units 2 pi/alat)
               b(1) = (  1.000000  0.577350  0.000000 )  
               b(2) = (  0.000000  1.154701  0.000000 )  
               b(3) = (  0.000000  0.000000  0.200000 )  


     PseudoPot. # 1 for Mo read from file:
     ../pseudo/Mo.UPF
     MD5 check sum: 4e1c3579de4f68baf863f15f5be96aa1
     Pseudo is Norm-conserving + core correction, Zval = 14.0
     Generated using ONCVPSP code by D. R. Hamann
     Using radial grid of 1640 points,  6 beta functions with: 
                l(1) =   0
                l(2) =   0
                l(3) =   1
                l(4) =   1
                l(5) =   2
                l(6) =   2

     PseudoPot. # 2 for S  read from file:
     ../pseudo/S.UPF
     MD5 check sum: a7319d53700e7dada26ada44d0048388
     Pseudo is Norm-conserving + core correction, Zval =  6.0
     Generated using ONCVPSP code by D. R. Hamann
     Using radial grid of 1146 points,  6 beta functions with: 
                l(1) =   0
                l(2) =   0
                l(3) =   1
                l(4) =   1
                l(5) =   2
                l(6) =   2

     atomic species   valence    mass     pseudopotential
     Mo               14.00    95.95000     Mo( 1.00)
     S                 6.00    32.06000     S ( 1.00)

     12 Sym. Ops. (no inversion) found



   Cartesian axes

     site n.     atom                  positions (alat units)
         1        Mo     tau(   1) = (   0.0000000   0.0000000   0.0000000  )
         2        S      tau(   2) = (   0.5000000   0.2886750  -0.4913414  )
         3        S      tau(   3) = (   0.5000000   0.2886750   0.4913414  )

     number of k points=    61  Fermi-Dirac smearing, width (Ry)=  0.0050
                       cart. coord. in units 2pi/alat
        k(    1) = (   0.0000000   0.0000000   0.0000000), wk =   0.0034722
        k(    2) = (   0.0000000   0.0481125   0.0000000), wk =   0.0208333
        k(    3) = (   0.0000000   0.0962250   0.0000000), wk =   0.0208333
        k(    4) = (   0.0000000   0.1443376   0.0000000), wk =   0.0208333
        k(    5) = (   0.0000000   0.1924501   0.0000000), wk =   0.0208333
        k(    6) = (   0.0000000   0.2405626   0.0000000), wk =   0.0208333
        k(    7) = (   0.0000000   0.2886751   0.0000000), wk =   0.0208333
        k(    8) = (   0.0000000   0.3367877   0.0000000), wk =   0.0208333
        k(    9) = (   0.0000000   0.3849002   0.0000000), wk =   0.0208333
        k(   10) = (   0.0000000   0.4330127   0.0000000), wk =   0.0208333
        k(   11) = (   0.0000000   0.4811252   0.0000000), wk =   0.0208333
        k(   12) = (   0.0000000   0.5292377   0.0000000), wk =   0.0208333
        k(   13) = (   0.0000000  -0.5773503   0.0000000), wk =   0.0104167
        k(   14) = (   0.0416667   0.0721688   0.0000000), wk =   0.0208333
        k(   15) = (   0.0416667   0.1202813   0.0000000), wk =   0.0416667
        k(   16) = (   0.0416667   0.1683938   0.0000000), wk =   0.0416667
        k(   17) = (   0.0416667   0.2165064   0.0000000), wk =   0.0416667
        k(   18) = (   0.0416667   0.2646189   0.0000000), wk =   0.0416667
        k(   19) = (   0.0416667   0.3127314   0.0000000), wk =   0.0416667
        k(   20) = (   0.0416667   0.3608439   0.0000000), wk =   0.0416667
        k(   21) = (   0.0416667   0.4089564   0.0000000), wk =   0.0416667
        k(   22) = (   0.0416667   0.4570690   0.0000000), wk =   0.0416667
        k(   23) = (   0.0416667   0.5051815   0.0000000), wk =   0.0416667
        k(   24) = (   0.0416667   0.5532940   0.0000000), wk =   0.0416667
        k(   25) = (   0.0833333   0.1443376   0.0000000), wk =   0.0208333
        k(   26) = (   0.0833333   0.1924501   0.0000000), wk =   0.0416667
        k(   27) = (   0.0833333   0.2405626   0.0000000), wk =   0.0416667
        k(   28) = (   0.0833333   0.2886751   0.0000000), wk =   0.0416667
        k(   29) = (   0.0833333   0.3367877   0.0000000), wk =   0.0416667
        k(   30) = (   0.0833333   0.3849002   0.0000000), wk =   0.0416667
        k(   31) = (   0.0833333   0.4330127   0.0000000), wk =   0.0416667
        k(   32) = (   0.0833333   0.4811252   0.0000000), wk =   0.0416667
        k(   33) = (   0.0833333   0.5292377   0.0000000), wk =   0.0416667
        k(   34) = (   0.0833333   0.5773503   0.0000000), wk =   0.0208333
        k(   35) = (   0.1250000   0.2165064   0.0000000), wk =   0.0208333
        k(   36) = (   0.1250000   0.2646189   0.0000000), wk =   0.0416667
        k(   37) = (   0.1250000   0.3127314   0.0000000), wk =   0.0416667
        k(   38) = (   0.1250000   0.3608439   0.0000000), wk =   0.0416667
        k(   39) = (   0.1250000   0.4089564   0.0000000), wk =   0.0416667
        k(   40) = (   0.1250000   0.4570690   0.0000000), wk =   0.0416667
        k(   41) = (   0.1250000   0.5051815   0.0000000), wk =   0.0416667
        k(   42) = (   0.1250000   0.5532940   0.0000000), wk =   0.0416667
        k(   43) = (   0.1666667   0.2886751   0.0000000), wk =   0.0208333
        k(   44) = (   0.1666667   0.3367877   0.0000000), wk =   0.0416667
        k(   45) = (   0.1666667   0.3849002   0.0000000), wk =   0.0416667
        k(   46) = (   0.1666667   0.4330127   0.0000000), wk =   0.0416667
        k(   47) = (   0.1666667   0.4811252   0.0000000), wk =   0.0416667
        k(   48) = (   0.1666667   0.5292377   0.0000000), wk =   0.0416667
        k(   49) = (   0.1666667   0.5773503   0.0000000), wk =   0.0208333
        k(   50) = (   0.2083333   0.3608439   0.0000000), wk =   0.0208333
        k(   51) = (   0.2083333   0.4089564   0.0000000), wk =   0.0416667
        k(   52) = (   0.2083333   0.4570690   0.0000000), wk =   0.0416667
        k(   53) = (   0.2083333   0.5051815   0.0000000), wk =   0.0416667
        k(   54) = (   0.2083333   0.5532940   0.0000000), wk =   0.0416667
        k(   55) = (   0.2500000   0.4330127   0.0000000), wk =   0.0208333
        k(   56) = (   0.2500000   0.4811252   0.0000000), wk =   0.0416667
        k(   57) = (   0.2500000   0.5292377   0.0000000), wk =   0.0416667
        k(   58) = (   0.2500000   0.5773503   0.0000000), wk =   0.0208333
        k(   59) = (   0.2916667   0.5051815   0.0000000), wk =   0.0208333
        k(   60) = (   0.2916667   0.5532940   0.0000000), wk =   0.0416667
        k(   61) = (   0.3333333   0.5773503   0.0000000), wk =   0.0069444

     Dense  grid:   127553 G-vectors     FFT dimensions: (  40,  40, 192)

     Estimated max dynamical RAM per process >     123.41 MB

     Estimated total dynamical RAM >       4.36 GB
 ----2D----2D----2D----2D----2D----2D----2D----2D----2D----2D----2D----2D
  The code is running with the 2D cutoff
  Please refer to:
  Sohier, T., Calandra, M., & Mauri, F. (2017), 
  Density functional perturbation theory for gated two-dimensional heterostructu
 res:
  Theoretical developments and application to flexural phonons in graphene.
  Physical Review B, 96(7), 75448. https://doi.org/10.1103/PhysRevB.96.075448
 ----2D----2D----2D----2D----2D----2D----2D----2D----2D----2D----2D----2D

     Initial potential from superposition of free atoms

     starting charge      25.9985, renormalised to      26.1600

     negative rho (up, down):  7.077E-06 0.000E+00
     Starting wfcs are   18 randomized atomic wfcs

     total cpu time spent up to now is        8.5 secs

     Self-consistent Calculation

     iteration #  1     ecut=   100.00 Ry     beta= 0.70
     Davidson diagonalization with overlap
     ethr =  1.00E-02,  avg # of iterations =  4.0

     total cpu time spent up to now is       14.8 secs

     total energy              =    -184.17593264 Ry
     estimated scf accuracy    <       1.11998187 Ry

     iteration #  2     ecut=   100.00 Ry     beta= 0.70
     Davidson diagonalization with overlap
     ethr =  4.28E-03,  avg # of iterations =  4.3

     total cpu time spent up to now is       21.5 secs

     total energy              =    -183.11750047 Ry
     estimated scf accuracy    <      15.42635365 Ry

     iteration #  3     ecut=   100.00 Ry     beta= 0.70
     Davidson diagonalization with overlap
     ethr =  4.28E-03,  avg # of iterations =  2.7

     total cpu time spent up to now is       27.2 secs

     total energy              =    -184.91107027 Ry
     estimated scf accuracy    <       0.02837872 Ry

     iteration #  4     ecut=   100.00 Ry     beta= 0.70
     Davidson diagonalization with overlap
     ethr =  1.08E-04,  avg # of iterations =  5.2

     total cpu time spent up to now is       34.6 secs

     total energy              =    -184.92224133 Ry
     estimated scf accuracy    <       0.02897537 Ry

     iteration #  5     ecut=   100.00 Ry     beta= 0.70
     Davidson diagonalization with overlap
     ethr =  1.08E-04,  avg # of iterations =  2.0

     total cpu time spent up to now is       39.7 secs

     total energy              =    -184.92430681 Ry
     estimated scf accuracy    <       0.00514474 Ry

     iteration #  6     ecut=   100.00 Ry     beta= 0.70
     Davidson diagonalization with overlap
     ethr =  1.97E-05,  avg # of iterations =  2.8

     total cpu time spent up to now is       44.8 secs

     total energy              =    -184.92509107 Ry
     estimated scf accuracy    <       0.00050156 Ry

     iteration #  7     ecut=   100.00 Ry     beta= 0.70
     Davidson diagonalization with overlap
     ethr =  1.92E-06,  avg # of iterations =  2.7

     total cpu time spent up to now is       50.4 secs

     total energy              =    -184.92515370 Ry
     estimated scf accuracy    <       0.00005978 Ry

     iteration #  8     ecut=   100.00 Ry     beta= 0.70
     Davidson diagonalization with overlap
     ethr =  2.29E-07,  avg # of iterations =  2.9

     total cpu time spent up to now is       55.7 secs

     total energy              =    -184.92515445 Ry
     estimated scf accuracy    <       0.00001685 Ry

     iteration #  9     ecut=   100.00 Ry     beta= 0.70
     Davidson diagonalization with overlap
     ethr =  6.44E-08,  avg # of iterations =  2.5

     total cpu time spent up to now is       60.9 secs

     total energy              =    -184.92515831 Ry
     estimated scf accuracy    <       0.00000242 Ry

     iteration # 10     ecut=   100.00 Ry     beta= 0.70
     Davidson diagonalization with overlap
     ethr =  9.26E-09,  avg # of iterations =  1.6

     negative rho (up, down):  1.139E-07 0.000E+00

     total cpu time spent up to now is       65.6 secs

     total energy              =    -184.92515844 Ry
     estimated scf accuracy    <       0.00000021 Ry

     iteration # 11     ecut=   100.00 Ry     beta= 0.70
     Davidson diagonalization with overlap
     ethr =  8.04E-10,  avg # of iterations =  4.1

     total cpu time spent up to now is       71.9 secs

     total energy              =    -184.92515853 Ry
     estimated scf accuracy    <       0.00000019 Ry

     iteration # 12     ecut=   100.00 Ry     beta= 0.70
     Davidson diagonalization with overlap
     ethr =  7.35E-10,  avg # of iterations =  2.0

     total cpu time spent up to now is       76.7 secs

     total energy              =    -184.92515854 Ry
     estimated scf accuracy    <       0.00000001 Ry

     iteration # 13     ecut=   100.00 Ry     beta= 0.70
     Davidson diagonalization with overlap
     ethr =  4.29E-11,  avg # of iterations =  3.9

     total cpu time spent up to now is       82.6 secs

     total energy              =    -184.92515854 Ry
     estimated scf accuracy    <          1.6E-09 Ry

     iteration # 14     ecut=   100.00 Ry     beta= 0.70
     Davidson diagonalization with overlap
     ethr =  6.10E-12,  avg # of iterations =  2.0

     total cpu time spent up to now is       87.5 secs

     total energy              =    -184.92515854 Ry
     estimated scf accuracy    <          8.5E-10 Ry

     iteration # 15     ecut=   100.00 Ry     beta= 0.70
     Davidson diagonalization with overlap
     ethr =  3.27E-12,  avg # of iterations =  2.3

     total cpu time spent up to now is       92.7 secs

     total energy              =    -184.92515854 Ry
     estimated scf accuracy    <          3.1E-12 Ry

     iteration # 16     ecut=   100.00 Ry     beta= 0.70
     Davidson diagonalization with overlap
     ethr =  1.00E-13,  avg # of iterations =  4.1

     total cpu time spent up to now is       99.0 secs

     total energy              =    -184.92515854 Ry
     estimated scf accuracy    <          2.4E-11 Ry

     iteration # 17     ecut=   100.00 Ry     beta= 0.70
     Davidson diagonalization with overlap
     ethr =  1.00E-13,  avg # of iterations =  2.0

     total cpu time spent up to now is      104.1 secs

     End of self-consistent calculation

          k = 0.0000 0.0000 0.0000 ( 15995 PWs)   bands (ev):

   -64.6372 -38.8389 -38.6317 -38.6317 -17.9775 -16.7144  -9.5573  -6.4372
    -6.4372  -5.9131  -5.3526  -5.3526  -4.0232  -1.1322  -1.1322  -0.9083
    -0.9083

          k = 0.0000 0.0481 0.0000 ( 16053 PWs)   bands (ev):

   -64.6365 -38.8377 -38.6381 -38.6331 -17.9519 -16.7034  -9.5275  -6.4983
    -6.4107  -6.0293  -5.3957  -5.2745  -4.0288  -1.1785  -1.0852  -1.0101
    -0.9379

          k = 0.0000 0.0962 0.0000 ( 16041 PWs)   bands (ev):

   -64.6347 -38.8340 -38.6569 -38.6374 -17.8761 -16.6710  -9.4410  -6.6696
    -6.3326  -6.2731  -5.5162  -5.1524  -4.0518  -1.2828  -1.2487  -1.0207
    -0.9544

          k = 0.0000 0.1443 0.0000 ( 16007 PWs)   bands (ev):

   -64.6318 -38.8281 -38.6867 -38.6442 -17.7529 -16.6183  -9.3071  -6.9202
    -6.5590  -6.2073  -5.6930  -5.0877  -4.1104  -1.5175  -1.3701  -1.1414
    -0.7654

          k = 0.0000 0.1925 0.0000 ( 15997 PWs)   bands (ev):

   -64.6279 -38.8205 -38.7253 -38.6531 -17.5873 -16.5476  -9.1451  -7.2092
    -6.8629  -6.0422  -5.9014  -5.1119  -4.2265  -1.7346  -1.3758  -1.2798
    -0.5485

          k = 0.0000 0.2406 0.0000 ( 15985 PWs)   bands (ev):

   -64.6235 -38.8116 -38.7700 -38.6633 -17.3865 -16.4622  -8.9910  -7.4893
    -7.1763  -6.1202  -5.8479  -5.2152  -4.4041  -1.8499  -1.4151  -1.2778
    -0.3307

          k = 0.0000 0.2887 0.0000 ( 15975 PWs)   bands (ev):

   -64.6187 -38.8176 -38.8020 -38.6744 -17.1598 -16.3663  -8.9065  -7.7032
    -7.4925  -6.3329  -5.6385  -5.3626  -4.6082  -1.8551  -1.5295  -1.0937
    -0.1320

          k = 0.0000 0.3368 0.0000 ( 15941 PWs)   bands (ev):

   -64.6139 -38.8649 -38.7924 -38.6853 -16.9192 -16.2655  -8.9537  -7.8078
    -7.8017  -6.5277  -5.5170  -5.4304  -4.7747  -1.7730  -1.6093  -0.8606
     0.0359

          k = 0.0000 0.3849 0.0000 ( 15944 PWs)   bands (ev):

   -64.6094 -38.9086 -38.7834 -38.6956 -16.6798 -16.1667  -9.1140  -8.0896
    -7.8416  -6.6960  -5.6534  -5.2410  -4.8455  -1.6478  -1.6346  -0.6189
     0.1680

          k = 0.0000 0.4330 0.0000 ( 15928 PWs)   bands (ev):

   -64.6055 -38.9459 -38.7757 -38.7043 -16.4600 -16.0776  -9.3118  -8.3390
    -7.8755  -6.8319  -5.7604  -5.0847  -4.8053  -1.6478  -1.4680  -0.4053
     0.2649

          k = 0.0000 0.4811 0.0000 ( 15916 PWs)   bands (ev):

   -64.6026 -38.9744 -38.7698 -38.7110 -16.2804 -16.0062  -9.4888  -8.5324
    -7.9263  -6.9316  -5.8351  -4.9710  -4.6947  -1.6232  -1.2999  -0.2463
     0.3298

          k = 0.0000 0.5292 0.0000 ( 15920 PWs)   bands (ev):

   -64.6007 -38.9922 -38.7661 -38.7152 -16.1619 -15.9598  -9.6096  -8.6551
    -7.9723  -6.9924  -5.8786  -4.9030  -4.5855  -1.5949  -1.1660  -0.1524
     0.3668

          k = 0.0000-0.5774 0.0000 ( 15930 PWs)   bands (ev):

   -64.6001 -38.9983 -38.7648 -38.7167 -16.1203 -15.9437  -9.6524  -8.6972
    -7.9905  -7.0128  -5.8929  -4.8805  -4.5409  -1.5827  -1.1127  -0.1219
     0.3788

          k = 0.0417 0.0722 0.0000 ( 16025 PWs)   bands (ev):

   -64.6353 -38.8352 -38.6506 -38.6361 -17.9012 -16.6817  -9.4693  -6.6141
    -6.3588  -6.1999  -5.4869  -5.1739  -4.0430  -1.2568  -1.1762  -0.9962
    -0.9934

          k = 0.0417 0.1203 0.0000 ( 16007 PWs)   bands (ev):

   -64.6329 -38.8304 -38.6747 -38.6418 -17.8016 -16.6392  -9.3588  -6.8235
    -6.4466  -6.2585  -5.6581  -5.0738  -4.0837  -1.4214  -1.3597  -1.1020
    -0.8275

          k = 0.0417 0.1684 0.0000 ( 15996 PWs)   bands (ev):

   -64.6295 -38.8237 -38.7086 -38.6500 -17.6572 -16.5774  -9.2094  -7.0909
    -6.7243  -6.1164  -5.8766  -5.0408  -4.1713  -1.6585  -1.4144  -1.2333
    -0.6185

          k = 0.0417 0.2165 0.0000 ( 15986 PWs)   bands (ev):

   -64.6254 -38.8154 -38.7498 -38.6600 -17.4739 -16.4992  -9.0477  -7.3729
    -7.0203  -6.1111  -5.9429  -5.0932  -4.3199  -1.8234  -1.3746  -1.3659
    -0.3967

          k = 0.0417 0.2646 0.0000 ( 15967 PWs)   bands (ev):

   -64.6207 -38.8061 -38.7955 -38.6711 -17.2599 -16.4083  -8.9220  -7.6175
    -7.3296  -6.3358  -5.7533  -5.2139  -4.5124  -1.8885  -1.4771  -1.2367
    -0.1862

          k = 0.0417 0.3127 0.0000 ( 15962 PWs)   bands (ev):

   -64.6159 -38.8424 -38.7966 -38.6826 -17.0258 -16.3096  -8.9017  -7.7678
    -7.6442  -6.5342  -5.5680  -5.3689  -4.6923  -1.8664  -1.5465  -1.0280
    -0.0039

          k = 0.0417 0.3608 0.0000 ( 15935 PWs)   bands (ev):

   -64.6113 -38.8874 -38.7873 -38.6937 -16.7851 -16.2093  -9.0135  -7.9494
    -7.8196  -6.6989  -5.5261  -5.4100  -4.7880  -1.7942  -1.5548  -0.7861
     0.1394

          k = 0.0417 0.4090 0.0000 ( 15925 PWs)   bands (ev):

   -64.6071 -38.9275 -38.7789 -38.7036 -16.5545 -16.1146  -9.1981  -8.2262
    -7.8446  -6.8288  -5.6642  -5.2868  -4.7658  -1.7162  -1.4860  -0.5469
     0.2376

          k = 0.0417 0.4571 0.0000 ( 15918 PWs)   bands (ev):

   -64.6037 -38.9601 -38.7721 -38.7116 -16.3535 -16.0336  -9.3864  -8.4550
    -7.8885  -6.9248  -5.7719  -5.1831  -4.6640  -1.6535  -1.3560  -0.3391
     0.2896

          k = 0.0417 0.5052 0.0000 ( 15917 PWs)   bands (ev):

   -64.6013 -38.9830 -38.7673 -38.7173 -16.2031 -15.9740  -9.5349  -8.6183
    -7.9417  -6.9882  -5.8445  -5.1009  -4.5452  -1.6070  -1.2135  -0.1827
     0.3023

          k = 0.0417 0.5533 0.0000 ( 15918 PWs)   bands (ev):

   -64.6001 -38.9949 -38.7648 -38.7203 -16.1222 -15.9424  -9.6164  -8.7034
    -7.9769  -7.0197  -5.8808  -5.0562  -4.4662  -1.5817  -1.1163  -0.0948
     0.2954

          k = 0.0833 0.1443 0.0000 ( 16015 PWs)   bands (ev):

   -64.6301 -38.8248 -38.7024 -38.6494 -17.6808 -16.5875  -9.2317  -7.0472
    -6.6631  -6.1442  -5.9011  -4.9931  -4.1534  -1.6256  -1.4400  -1.2232
    -0.6337

          k = 0.0833 0.1925 0.0000 ( 15995 PWs)   bands (ev):

   -64.6264 -38.8174 -38.7382 -38.6594 -17.5186 -16.5181  -9.0788  -7.3032
    -6.9033  -6.1858  -6.0013  -4.9714  -4.2752  -1.8038  -1.4613  -1.3487
    -0.4115

          k = 0.0833 0.2406 0.0000 ( 15975 PWs)   bands (ev):

   -64.6221 -38.8088 -38.7795 -38.6711 -17.3218 -16.4341  -8.9362  -7.5453
    -7.1721  -6.4570  -5.8481  -5.0291  -4.4433  -1.9181  -1.4454  -1.3905
    -0.1916

          k = 0.0833 0.2887 0.0000 ( 15957 PWs)   bands (ev):

   -64.6174 -38.8235 -38.7995 -38.6837 -17.0998 -16.3398  -8.8649  -7.7169
    -7.4751  -6.6746  -5.7120  -5.1532  -4.6132  -1.9575  -1.4918  -1.2323
     0.0039

          k = 0.0833 0.3368 0.0000 ( 15958 PWs)   bands (ev):

   -64.6128 -38.8672 -38.7902 -38.6963 -16.8645 -16.2406  -8.9179  -7.7967
    -7.7847  -6.8290  -5.6208  -5.3146  -4.7140  -1.9288  -1.4843  -1.0149
     0.1587

          k = 0.0833 0.3849 0.0000 ( 15936 PWs)   bands (ev):

   -64.6085 -38.9076 -38.7816 -38.7080 -16.6309 -16.1432  -9.0684  -8.1071
    -7.7991  -6.9306  -5.5699  -5.4843  -4.7059  -1.8444  -1.4344  -0.7720
     0.2600

          k = 0.0833 0.4330 0.0000 ( 15917 PWs)   bands (ev):

   -64.6047 -38.9421 -38.7741 -38.7181 -16.4168 -16.0552  -9.2475  -8.3779
    -7.8292  -6.9926  -5.6395  -5.5193  -4.6165  -1.7311  -1.3528  -0.5313
     0.2986

          k = 0.0833 0.4811 0.0000 ( 15928 PWs)   bands (ev):

   -64.6019 -38.9685 -38.7684 -38.7258 -16.2424 -15.9847  -9.4059  -8.5875
    -7.8845  -7.0264  -5.7633  -5.4591  -4.4944  -1.6369  -1.2385  -0.3105
     0.2730

          k = 0.0833 0.5292 0.0000 ( 15912 PWs)   bands (ev):

   -64.6001 -38.9850 -38.7648 -38.7306 -16.1275 -15.9388  -9.5134  -8.7199
    -7.9361  -7.0418  -5.8433  -5.4115  -4.3882  -1.5916  -1.1173  -0.1197
     0.1927

          k = 0.0833 0.5774 0.0000 ( 15928 PWs)   bands (ev):

   -64.5995 -38.9906 -38.7636 -38.7322 -16.0872 -15.9229  -9.5514  -8.7652
    -7.9566  -7.0460  -5.8709  -5.3941  -4.3455  -1.5809  -1.0627   0.0019
     0.1062

          k = 0.1250 0.2165 0.0000 ( 15989 PWs)   bands (ev):

   -64.6225 -38.8097 -38.7735 -38.6717 -17.3426 -16.4428  -8.9417  -7.5170
    -7.0925  -6.5331  -5.8844  -4.9499  -4.4185  -1.9288  -1.4566  -1.4367
    -0.1886

          k = 0.1250 0.2646 0.0000 ( 15967 PWs)   bands (ev):

   -64.6182 -38.8123 -38.8010 -38.6858 -17.1376 -16.3551  -8.8462  -7.6811
    -7.3288  -6.8258  -5.7994  -5.0043  -4.5683  -2.0094  -1.4667  -1.3715
     0.0184

          k = 0.1250 0.3127 0.0000 ( 15951 PWs)   bands (ev):

   -64.6137 -38.8518 -38.7921 -38.7006 -16.9137 -16.2598  -8.8489  -7.7507
    -7.6435  -6.9982  -5.7804  -5.1278  -4.6652  -2.0207  -1.4432  -1.2111
     0.1884

          k = 0.1250 0.3608 0.0000 ( 15960 PWs)   bands (ev):

   -64.6094 -38.8897 -38.7834 -38.7151 -16.6844 -16.1626  -8.9527  -7.9856
    -7.7488  -7.0782  -5.8192  -5.2951  -4.6707  -1.9522  -1.3893  -1.0015
     0.3066

          k = 0.1250 0.4090 0.0000 ( 15947 PWs)   bands (ev):

   -64.6055 -38.9234 -38.7757 -38.7281 -16.4656 -16.0708  -9.1020  -8.3008
    -7.7533  -7.1047  -5.8565  -5.4772  -4.5987  -1.8226  -1.3229  -0.7733
     0.3631

          k = 0.1250 0.4571 0.0000 ( 15930 PWs)   bands (ev):

   -64.6023 -38.9507 -38.7693 -38.7387 -16.2758 -15.9919  -9.2475  -8.5588
    -7.8008  -7.0988  -5.8566  -5.6477  -4.4813  -1.6912  -1.2338  -0.5519
     0.3561

          k = 0.1250 0.5052 0.0000 ( 15927 PWs)   bands (ev):

   -64.6001 -38.9700 -38.7648 -38.7462 -16.1346 -15.9339  -9.3598  -8.7411
    -7.8673  -7.0781  -5.8351  -5.7821  -4.3556  -1.6276  -1.1035  -0.3586
     0.2989

          k = 0.1250 0.5533 0.0000 ( 15918 PWs)   bands (ev):

   -64.5989 -38.9799 -38.7625 -38.7501 -16.0589 -15.9030  -9.4207  -8.8353
    -7.9127  -7.0607  -5.8573  -5.8179  -4.2715  -1.6197  -0.9941  -0.2272
     0.2315

          k = 0.1667 0.2887 0.0000 ( 15971 PWs)   bands (ev):

   -64.6140 -38.8460 -38.7927 -38.7027 -16.9304 -16.2662  -8.8237  -7.7362
    -7.5608  -7.0904  -5.8399  -5.0539  -4.6486  -2.0534  -1.4302  -1.2884
     0.2010

          k = 0.1667 0.3368 0.0000 ( 15955 PWs)   bands (ev):

   -64.6099 -38.8787 -38.7844 -38.7205 -16.7119 -16.1724  -8.8835  -7.8940
    -7.7128  -7.1934  -5.9681  -5.1753  -4.6556  -2.0117  -1.3659  -1.1445
     0.3393

          k = 0.1667 0.3849 0.0000 ( 15934 PWs)   bands (ev):

   -64.6060 -38.9084 -38.7766 -38.7376 -16.4963 -16.0800  -8.9891  -8.2362
    -7.6780  -7.2074  -6.1189  -5.3454  -4.5969  -1.8893  -1.2980  -0.9649
     0.4261

          k = 0.1667 0.4330 0.0000 ( 15921 PWs)   bands (ev):

   -64.6026 -38.9335 -38.7700 -38.7526 -16.3001 -15.9963  -9.0985  -8.5334
    -7.6959  -7.1753  -6.2234  -5.5343  -4.4886  -1.7465  -1.2175  -0.7804
     0.4618

          k = 0.1667 0.4811 0.0000 ( 15944 PWs)   bands (ev):

   -64.6001 -38.9526 -38.7649 -38.7642 -16.1416 -15.9289  -9.1873  -8.7608
    -7.7678  -7.1199  -6.2662  -5.7106  -4.3521  -1.6785  -1.0804  -0.6184
     0.4567

          k = 0.1667 0.5292 0.0000 ( 15926 PWs)   bands (ev):

   -64.5985 -38.9644 -38.7716 -38.7616 -16.0379 -15.8850  -9.2435  -8.9033
    -7.8435  -7.0661  -6.2748  -5.8406  -4.2305  -1.6919  -0.9207  -0.5043
     0.4331

          k = 0.1667 0.5774 0.0000 ( 15928 PWs)   bands (ev):

   -64.5979 -38.9685 -38.7741 -38.7605 -16.0018 -15.8697  -9.2627  -8.9518
    -7.8746  -7.0431  -6.2750  -5.8895  -4.1805  -1.7093  -0.8491  -0.4622
     0.4203

          k = 0.2083 0.3608 0.0000 ( 15927 PWs)   bands (ev):

   -64.6061 -38.9025 -38.7770 -38.7416 -16.5067 -16.0831  -8.9462  -8.2095
    -7.6431  -7.2497  -6.2220  -5.2948  -4.5980  -1.9132  -1.2889  -1.0372
     0.4508

          k = 0.2083 0.4090 0.0000 ( 15931 PWs)   bands (ev):

   -64.6028 -38.9223 -38.7703 -38.7621 -16.3129 -15.9983  -9.0064  -8.5176
    -7.6037  -7.2236  -6.4663  -5.4642  -4.4977  -1.7796  -1.2059  -0.9138
     0.5281

          k = 0.2083 0.4571 0.0000 ( 15949 PWs)   bands (ev):

   -64.6001 -38.9373 -38.7799 -38.7649 -16.1468 -15.9252  -9.0456  -8.7744
    -7.6425  -7.1530  -6.6335  -5.6524  -4.3587  -1.7207  -1.0612  -0.8016
     0.5784

          k = 0.2083 0.5052 0.0000 ( 15946 PWs)   bands (ev):

   -64.5982 -38.9473 -38.7931 -38.7610 -16.0244 -15.8713  -9.0604  -8.9569
    -7.7412  -7.0675  -6.7102  -5.8227  -4.2091  -1.7660  -0.8625  -0.7198
     0.6077

          k = 0.2083 0.5533 0.0000 ( 15938 PWs)   bands (ev):

   -64.5972 -38.9523 -38.8001 -38.7590 -15.9593 -15.8426  -9.0609  -9.0515
    -7.8210  -7.0050  -6.7342  -5.9295  -4.1062  -1.8279  -0.7176  -0.6774
     0.6208

          k = 0.2500 0.4330 0.0000 ( 15966 PWs)   bands (ev):

   -64.6001 -38.9309 -38.7865 -38.7649 -16.1486 -15.9239  -8.9899  -8.7792
    -7.5650  -7.1656  -6.8009  -5.6299  -4.3624  -1.7367  -1.0540  -0.8673
     0.6235

          k = 0.2500 0.4811 0.0000 ( 15945 PWs)   bands (ev):

   -64.5980 -38.9348 -38.8079 -38.7607 -16.0178 -15.8639  -8.9864  -8.9373
    -7.6125  -7.0679  -7.0394  -5.8106  -4.1997  -1.8115  -0.8369  -0.8314
     0.7088

          k = 0.2500 0.5292 0.0000 ( 15948 PWs)   bands (ev):

   -64.5967 -38.9355 -38.8231 -38.7581 -15.9333 -15.8247  -9.1183  -8.8682
    -7.7401  -7.1362  -6.9689  -5.9626  -4.0530  -1.9269  -0.8223  -0.6295
     0.7691

          k = 0.2500 0.5774 0.0000 ( 15936 PWs)   bands (ev):

   -64.5962 -38.9353 -38.8287 -38.7572 -15.9041 -15.8111  -9.1635  -8.8328
    -7.8105  -7.1559  -6.9238  -6.0260  -3.9911  -1.9817  -0.8183  -0.5472
     0.7909

          k = 0.2917 0.5052 0.0000 ( 15932 PWs)   bands (ev):

   -64.5965 -38.9273 -38.8334 -38.7577 -15.9246 -15.8184  -9.1418  -8.7820
    -7.6599  -7.3465  -6.9542  -5.9755  -4.0330  -1.9654  -0.8731  -0.5988
     0.8237

          k = 0.2917 0.5533 0.0000 ( 15934 PWs)   bands (ev):

   -64.5957 -38.9192 -38.8508 -38.7562 -15.8756 -15.7942  -9.2235  -8.6322
    -7.8256  -7.4369  -6.8629  -6.0935  -3.9163  -2.0854  -0.8955  -0.4512
     0.8908

          k = 0.3333 0.5774 0.0000 ( 15894 PWs)   bands (ev):

   -64.5954 -38.9081 -38.8658 -38.7556 -15.8559 -15.7836  -9.2600  -8.4781
    -7.9542  -7.5143  -6.8120  -6.1528  -3.8587  -2.1536  -0.9217  -0.3841
     0.9358

     the Fermi energy is    -2.0532 ev

!    total energy              =    -184.92515854 Ry
     estimated scf accuracy    <          1.0E-13 Ry
     smearing contrib. (-TS)   =      -0.00184264 Ry
     internal energy E=F+TS    =    -184.92331590 Ry

     The total energy is F=E-TS. E is the sum of the following terms:
     one-electron contribution =   -1382.68861454 Ry
     hartree contribution      =     688.96589696 Ry
     xc contribution           =     -33.42744074 Ry
     ewald contribution        =     542.22684241 Ry

     convergence has been achieved in  17 iterations

     Writing all to output data dir ./mos2.save/ :
     XML data file, charge density, pseudopotentials, collected wavefunctions
 
     init_run     :      2.39s CPU      5.16s WALL (       1 calls)
     electrons    :     93.46s CPU     95.92s WALL (       1 calls)

     Called by init_run:
     wfcinit      :      1.42s CPU      2.58s WALL (       1 calls)
     potinit      :      0.56s CPU      0.74s WALL (       1 calls)
     hinit0       :      0.32s CPU      1.27s WALL (       1 calls)

     Called by electrons:
     c_bands      :     68.06s CPU     69.40s WALL (      17 calls)
     sum_band     :     14.67s CPU     14.96s WALL (      17 calls)
     v_of_rho     :      8.23s CPU      8.48s WALL (      18 calls)
     mix_rho      :      0.76s CPU      0.78s WALL (      17 calls)

     Called by c_bands:
     init_us_2    :      1.08s CPU      1.10s WALL (      70 calls)
     init_us_2:cp :      1.08s CPU      1.09s WALL (      70 calls)
     cegterg      :     59.91s CPU     61.00s WALL (      34 calls)

     Called by *egterg:
     cdiaghg      :      0.08s CPU      0.09s WALL (     136 calls)
     h_psi        :     54.60s CPU     55.82s WALL (     138 calls)
     g_psi        :      0.15s CPU      0.16s WALL (     102 calls)

     Called by h_psi:
     h_psi:calbec :      2.01s CPU      2.03s WALL (     138 calls)
     vloc_psi     :     49.59s CPU     50.54s WALL (     138 calls)
     add_vuspsi   :      2.65s CPU      2.68s WALL (     138 calls)

     General routines
     calbec       :      2.01s CPU      2.03s WALL (     138 calls)
     fft          :      3.43s CPU      3.55s WALL (     180 calls)
     ffts         :      0.28s CPU      0.29s WALL (      17 calls)
     fftw         :     46.71s CPU     47.58s WALL (    3634 calls)
 
     Parallel routines
 
     PWSCF        :   1m35.99s CPU   1m46.20s WALL

 
   This run was terminated on:  16:38:56  27Apr2024            

=------------------------------------------------------------------------------=
   JOB DONE.
=------------------------------------------------------------------------------=
