
     Program PWSCF v.7.3 starts on 25Apr2024 at  9:58:35 

     This program is part of the open-source Quantum ESPRESSO suite
     for quantum simulation of materials; please cite
         "P. Giannozzi et al., J. Phys.:Condens. Matter 21 395502 (2009);
         "P. Giannozzi et al., J. Phys.:Condens. Matter 29 465901 (2017);
         "P. Giannozzi et al., J. Chem. Phys. 152 154105 (2020);
          URL http://www.quantum-espresso.org", 
     in publications or presentations arising from this work. More details at
     http://www.quantum-espresso.org/quote

     Parallel version (MPI), running on    48 processors

     MPI processes distributed on     1 nodes
     251935 MiB available memory on the printing compute node when the environment starts
 
     Reading input from sc.in

     Current dimensions of program PWSCF are:
     Max number of different atomic species (ntypx) = 10
     Max number of k-points (npk) =  40000
     Max angular momentum in pseudopotentials (lmaxx) =  4
 
     K-points division:     npool     =      48
     Subspace diagonalization in iterative solution of the eigenvalue problem:
     a serial algorithm will be used

 
     G-vector sticks info
     --------------------
     sticks:   dense  smooth     PW     G-vecs:    dense   smooth      PW
     Sum        1003    1003    283               127553   127553   19429
 
     Using Slab Decomposition
 


     bravais-lattice index     =            4
     lattice parameter (alat)  =       6.0199  a.u.
     unit-cell volume          =     944.6376 (a.u.)^3
     number of atoms/cell      =            3
     number of atomic types    =            2
     number of electrons       =        26.13
     number of Kohn-Sham states=           17
     kinetic-energy cutoff     =     100.0000  Ry
     charge density cutoff     =     400.0000  Ry
     scf convergence threshold =      1.0E-12
     mixing beta               =       0.7000
     number of iterations used =            8  plain     mixing
     Exchange-correlation= PBE
                           (   1   4   3   4   0   0   0)

     celldm(1)=   6.019885  celldm(2)=   0.000000  celldm(3)=   5.000000
     celldm(4)=   0.000000  celldm(5)=   0.000000  celldm(6)=   0.000000

     crystal axes: (cart. coord. in units of alat)
               a(1) = (   1.000000   0.000000   0.000000 )  
               a(2) = (  -0.500000   0.866025   0.000000 )  
               a(3) = (   0.000000   0.000000   5.000000 )  

     reciprocal axes: (cart. coord. in units 2 pi/alat)
               b(1) = (  1.000000  0.577350  0.000000 )  
               b(2) = (  0.000000  1.154701  0.000000 )  
               b(3) = (  0.000000  0.000000  0.200000 )  


     PseudoPot. # 1 for Mo read from file:
     ../pseudo/Mo.UPF
     MD5 check sum: 4e1c3579de4f68baf863f15f5be96aa1
     Pseudo is Norm-conserving + core correction, Zval = 14.0
     Generated using ONCVPSP code by D. R. Hamann
     Using radial grid of 1640 points,  6 beta functions with: 
                l(1) =   0
                l(2) =   0
                l(3) =   1
                l(4) =   1
                l(5) =   2
                l(6) =   2

     PseudoPot. # 2 for S  read from file:
     ../pseudo/S.UPF
     MD5 check sum: a7319d53700e7dada26ada44d0048388
     Pseudo is Norm-conserving + core correction, Zval =  6.0
     Generated using ONCVPSP code by D. R. Hamann
     Using radial grid of 1146 points,  6 beta functions with: 
                l(1) =   0
                l(2) =   0
                l(3) =   1
                l(4) =   1
                l(5) =   2
                l(6) =   2

     atomic species   valence    mass     pseudopotential
     Mo               14.00    95.95000     Mo( 1.00)
     S                 6.00    32.06000     S ( 1.00)

     12 Sym. Ops. (no inversion) found



   Cartesian axes

     site n.     atom                  positions (alat units)
         1        Mo     tau(   1) = (   0.0000000   0.0000000   0.0000000  )
         2        S      tau(   2) = (   0.5000000   0.2886750  -0.4913414  )
         3        S      tau(   3) = (   0.5000000   0.2886750   0.4913414  )

     number of k points=    61  Fermi-Dirac smearing, width (Ry)=  0.0050
                       cart. coord. in units 2pi/alat
        k(    1) = (   0.0000000   0.0000000   0.0000000), wk =   0.0034722
        k(    2) = (   0.0000000   0.0481125   0.0000000), wk =   0.0208333
        k(    3) = (   0.0000000   0.0962250   0.0000000), wk =   0.0208333
        k(    4) = (   0.0000000   0.1443376   0.0000000), wk =   0.0208333
        k(    5) = (   0.0000000   0.1924501   0.0000000), wk =   0.0208333
        k(    6) = (   0.0000000   0.2405626   0.0000000), wk =   0.0208333
        k(    7) = (   0.0000000   0.2886751   0.0000000), wk =   0.0208333
        k(    8) = (   0.0000000   0.3367877   0.0000000), wk =   0.0208333
        k(    9) = (   0.0000000   0.3849002   0.0000000), wk =   0.0208333
        k(   10) = (   0.0000000   0.4330127   0.0000000), wk =   0.0208333
        k(   11) = (   0.0000000   0.4811252   0.0000000), wk =   0.0208333
        k(   12) = (   0.0000000   0.5292377   0.0000000), wk =   0.0208333
        k(   13) = (   0.0000000  -0.5773503   0.0000000), wk =   0.0104167
        k(   14) = (   0.0416667   0.0721688   0.0000000), wk =   0.0208333
        k(   15) = (   0.0416667   0.1202813   0.0000000), wk =   0.0416667
        k(   16) = (   0.0416667   0.1683938   0.0000000), wk =   0.0416667
        k(   17) = (   0.0416667   0.2165064   0.0000000), wk =   0.0416667
        k(   18) = (   0.0416667   0.2646189   0.0000000), wk =   0.0416667
        k(   19) = (   0.0416667   0.3127314   0.0000000), wk =   0.0416667
        k(   20) = (   0.0416667   0.3608439   0.0000000), wk =   0.0416667
        k(   21) = (   0.0416667   0.4089564   0.0000000), wk =   0.0416667
        k(   22) = (   0.0416667   0.4570690   0.0000000), wk =   0.0416667
        k(   23) = (   0.0416667   0.5051815   0.0000000), wk =   0.0416667
        k(   24) = (   0.0416667   0.5532940   0.0000000), wk =   0.0416667
        k(   25) = (   0.0833333   0.1443376   0.0000000), wk =   0.0208333
        k(   26) = (   0.0833333   0.1924501   0.0000000), wk =   0.0416667
        k(   27) = (   0.0833333   0.2405626   0.0000000), wk =   0.0416667
        k(   28) = (   0.0833333   0.2886751   0.0000000), wk =   0.0416667
        k(   29) = (   0.0833333   0.3367877   0.0000000), wk =   0.0416667
        k(   30) = (   0.0833333   0.3849002   0.0000000), wk =   0.0416667
        k(   31) = (   0.0833333   0.4330127   0.0000000), wk =   0.0416667
        k(   32) = (   0.0833333   0.4811252   0.0000000), wk =   0.0416667
        k(   33) = (   0.0833333   0.5292377   0.0000000), wk =   0.0416667
        k(   34) = (   0.0833333   0.5773503   0.0000000), wk =   0.0208333
        k(   35) = (   0.1250000   0.2165064   0.0000000), wk =   0.0208333
        k(   36) = (   0.1250000   0.2646189   0.0000000), wk =   0.0416667
        k(   37) = (   0.1250000   0.3127314   0.0000000), wk =   0.0416667
        k(   38) = (   0.1250000   0.3608439   0.0000000), wk =   0.0416667
        k(   39) = (   0.1250000   0.4089564   0.0000000), wk =   0.0416667
        k(   40) = (   0.1250000   0.4570690   0.0000000), wk =   0.0416667
        k(   41) = (   0.1250000   0.5051815   0.0000000), wk =   0.0416667
        k(   42) = (   0.1250000   0.5532940   0.0000000), wk =   0.0416667
        k(   43) = (   0.1666667   0.2886751   0.0000000), wk =   0.0208333
        k(   44) = (   0.1666667   0.3367877   0.0000000), wk =   0.0416667
        k(   45) = (   0.1666667   0.3849002   0.0000000), wk =   0.0416667
        k(   46) = (   0.1666667   0.4330127   0.0000000), wk =   0.0416667
        k(   47) = (   0.1666667   0.4811252   0.0000000), wk =   0.0416667
        k(   48) = (   0.1666667   0.5292377   0.0000000), wk =   0.0416667
        k(   49) = (   0.1666667   0.5773503   0.0000000), wk =   0.0208333
        k(   50) = (   0.2083333   0.3608439   0.0000000), wk =   0.0208333
        k(   51) = (   0.2083333   0.4089564   0.0000000), wk =   0.0416667
        k(   52) = (   0.2083333   0.4570690   0.0000000), wk =   0.0416667
        k(   53) = (   0.2083333   0.5051815   0.0000000), wk =   0.0416667
        k(   54) = (   0.2083333   0.5532940   0.0000000), wk =   0.0416667
        k(   55) = (   0.2500000   0.4330127   0.0000000), wk =   0.0208333
        k(   56) = (   0.2500000   0.4811252   0.0000000), wk =   0.0416667
        k(   57) = (   0.2500000   0.5292377   0.0000000), wk =   0.0416667
        k(   58) = (   0.2500000   0.5773503   0.0000000), wk =   0.0208333
        k(   59) = (   0.2916667   0.5051815   0.0000000), wk =   0.0208333
        k(   60) = (   0.2916667   0.5532940   0.0000000), wk =   0.0416667
        k(   61) = (   0.3333333   0.5773503   0.0000000), wk =   0.0069444

     Dense  grid:   127553 G-vectors     FFT dimensions: (  40,  40, 192)

     Estimated max dynamical RAM per process >     123.41 MB

     Estimated total dynamical RAM >       4.36 GB
 ----2D----2D----2D----2D----2D----2D----2D----2D----2D----2D----2D----2D
  The code is running with the 2D cutoff
  Please refer to:
  Sohier, T., Calandra, M., & Mauri, F. (2017), 
  Density functional perturbation theory for gated two-dimensional heterostructu
 res:
  Theoretical developments and application to flexural phonons in graphene.
  Physical Review B, 96(7), 75448. https://doi.org/10.1103/PhysRevB.96.075448
 ----2D----2D----2D----2D----2D----2D----2D----2D----2D----2D----2D----2D

     Initial potential from superposition of free atoms

     starting charge      25.9985, renormalised to      26.1300

     negative rho (up, down):  7.068E-06 0.000E+00
     Starting wfcs are   18 randomized atomic wfcs

     total cpu time spent up to now is        7.0 secs

     Self-consistent Calculation

     iteration #  1     ecut=   100.00 Ry     beta= 0.70
     Davidson diagonalization with overlap
     ethr =  1.00E-02,  avg # of iterations =  3.8

     total cpu time spent up to now is        8.8 secs

     total energy              =    -184.29649422 Ry
     estimated scf accuracy    <       0.94392968 Ry

     iteration #  2     ecut=   100.00 Ry     beta= 0.70
     Davidson diagonalization with overlap
     ethr =  3.61E-03,  avg # of iterations =  4.0

     total cpu time spent up to now is       10.5 secs

     total energy              =    -183.31529275 Ry
     estimated scf accuracy    <      13.36067702 Ry

     iteration #  3     ecut=   100.00 Ry     beta= 0.70
     Davidson diagonalization with overlap
     ethr =  3.61E-03,  avg # of iterations =  2.7

     total cpu time spent up to now is       11.9 secs

     total energy              =    -184.90990911 Ry
     estimated scf accuracy    <       0.03493968 Ry

     iteration #  4     ecut=   100.00 Ry     beta= 0.70
     Davidson diagonalization with overlap
     ethr =  1.34E-04,  avg # of iterations =  4.4

     total cpu time spent up to now is       13.5 secs

     total energy              =    -184.91911689 Ry
     estimated scf accuracy    <       0.01590423 Ry

     iteration #  5     ecut=   100.00 Ry     beta= 0.70
     Davidson diagonalization with overlap
     ethr =  6.09E-05,  avg # of iterations =  2.0

     negative rho (up, down):  7.335E-06 0.000E+00

     total cpu time spent up to now is       14.7 secs

     total energy              =    -184.91951683 Ry
     estimated scf accuracy    <       0.00337097 Ry

     iteration #  6     ecut=   100.00 Ry     beta= 0.70
     Davidson diagonalization with overlap
     ethr =  1.29E-05,  avg # of iterations =  2.6

     total cpu time spent up to now is       16.0 secs

     total energy              =    -184.92016719 Ry
     estimated scf accuracy    <       0.00060789 Ry

     iteration #  7     ecut=   100.00 Ry     beta= 0.70
     Davidson diagonalization with overlap
     ethr =  2.33E-06,  avg # of iterations =  2.7

     total cpu time spent up to now is       17.3 secs

     total energy              =    -184.92025684 Ry
     estimated scf accuracy    <       0.00000377 Ry

     iteration #  8     ecut=   100.00 Ry     beta= 0.70
     Davidson diagonalization with overlap
     ethr =  1.44E-08,  avg # of iterations =  5.0

     total cpu time spent up to now is       19.2 secs

     total energy              =    -184.92026138 Ry
     estimated scf accuracy    <       0.00000157 Ry

     iteration #  9     ecut=   100.00 Ry     beta= 0.70
     Davidson diagonalization with overlap
     ethr =  6.02E-09,  avg # of iterations =  2.5

     total cpu time spent up to now is       20.6 secs

     total energy              =    -184.92026154 Ry
     estimated scf accuracy    <       0.00000091 Ry

     iteration # 10     ecut=   100.00 Ry     beta= 0.70
     Davidson diagonalization with overlap
     ethr =  3.48E-09,  avg # of iterations =  2.0

     total cpu time spent up to now is       21.9 secs

     total energy              =    -184.92026177 Ry
     estimated scf accuracy    <       0.00000009 Ry

     iteration # 11     ecut=   100.00 Ry     beta= 0.70
     Davidson diagonalization with overlap
     ethr =  3.63E-10,  avg # of iterations =  2.0

     total cpu time spent up to now is       23.1 secs

     total energy              =    -184.92026178 Ry
     estimated scf accuracy    <          3.3E-09 Ry

     iteration # 12     ecut=   100.00 Ry     beta= 0.70
     Davidson diagonalization with overlap
     ethr =  1.27E-11,  avg # of iterations =  3.6

     total cpu time spent up to now is       24.7 secs

     total energy              =    -184.92026179 Ry
     estimated scf accuracy    <          2.4E-11 Ry

     iteration # 13     ecut=   100.00 Ry     beta= 0.70
     Davidson diagonalization with overlap
     ethr =  1.00E-13,  avg # of iterations =  4.5

     total cpu time spent up to now is       26.5 secs

     total energy              =    -184.92026179 Ry
     estimated scf accuracy    <          1.3E-12 Ry

     iteration # 14     ecut=   100.00 Ry     beta= 0.70
     Davidson diagonalization with overlap
     ethr =  1.00E-13,  avg # of iterations =  1.0

     total cpu time spent up to now is       27.6 secs

     End of self-consistent calculation

          k = 0.0000 0.0000 0.0000 ( 15995 PWs)   bands (ev):

   -64.9853 -39.1830 -38.9806 -38.9806 -18.3078 -17.0406  -9.8762  -6.7781
    -6.7781  -6.2015  -5.6903  -5.6903  -4.3285  -1.4665  -1.4665  -1.2412
    -1.2412

          k = 0.0000 0.0481 0.0000 ( 16053 PWs)   bands (ev):

   -64.9847 -39.1818 -38.9870 -38.9820 -18.2821 -17.0296  -9.8464  -6.8390
    -6.7516  -6.3272  -5.7333  -5.6027  -4.3353  -1.5111  -1.4195  -1.3350
    -1.2709

          k = 0.0000 0.0962 0.0000 ( 16041 PWs)   bands (ev):

   -64.9829 -39.1781 -39.0058 -38.9863 -18.2063 -16.9973  -9.7598  -7.0098
    -6.6733  -6.5810  -5.8538  -5.4706  -4.3620  -1.6113  -1.5618  -1.3540
    -1.2887

          k = 0.0000 0.1443 0.0000 ( 16007 PWs)   bands (ev):

   -64.9799 -39.1722 -39.0356 -38.9931 -18.0831 -16.9449  -9.6260  -7.2595
    -6.8733  -6.5476  -6.0304  -5.4002  -4.4263  -1.8228  -1.6933  -1.4751
    -1.0996

          k = 0.0000 0.1925 0.0000 ( 15997 PWs)   bands (ev):

   -64.9761 -39.1646 -39.0742 -39.0020 -17.9175 -16.8745  -9.4644  -7.5470
    -7.1817  -6.3820  -6.2387  -5.4216  -4.5490  -2.0358  -1.6934  -1.6140
    -0.8825

          k = 0.0000 0.2406 0.0000 ( 15985 PWs)   bands (ev):

   -64.9716 -39.1557 -39.1188 -39.0123 -17.7167 -16.7895  -9.3116  -7.8245
    -7.4983  -6.4573  -6.1870  -5.5239  -4.7321  -2.1505  -1.7503  -1.5900
    -0.6643

          k = 0.0000 0.2887 0.0000 ( 15975 PWs)   bands (ev):

   -64.9668 -39.1664 -39.1461 -39.0233 -17.4900 -16.6940  -9.2303  -8.0340
    -7.8167  -6.6699  -5.9766  -5.6713  -4.9398  -2.1586  -1.8660  -1.4020
    -0.4651

          k = 0.0000 0.3368 0.0000 ( 15941 PWs)   bands (ev):

   -64.9620 -39.2136 -39.1365 -39.0342 -17.2495 -16.5938  -9.2817  -8.1333
    -8.1273  -6.8645  -5.8262  -5.7673  -5.1080  -2.0818  -1.9474  -1.1671
    -0.2967

          k = 0.0000 0.3849 0.0000 ( 15944 PWs)   bands (ev):

   -64.9576 -39.2573 -39.1276 -39.0444 -17.0103 -16.4955  -9.4445  -8.4160
    -8.1641  -7.0327  -5.9633  -5.5764  -5.1788  -1.9878  -1.9501  -0.9261
    -0.1640

          k = 0.0000 0.4330 0.0000 ( 15928 PWs)   bands (ev):

   -64.9537 -39.2946 -39.1199 -39.0532 -16.7906 -16.4068  -9.6429  -8.6657
    -8.1977  -7.1686  -6.0709  -5.4187  -5.1374  -1.9898  -1.7904  -0.7149
    -0.0666

          k = 0.0000 0.4811 0.0000 ( 15916 PWs)   bands (ev):

   -64.9507 -39.3231 -39.1140 -39.0599 -16.6112 -16.3357  -9.8198  -8.8592
    -8.2494  -7.2683  -6.1461  -5.3038  -5.0254  -1.9668  -1.6290  -0.5585
    -0.0013

          k = 0.0000 0.5292 0.0000 ( 15920 PWs)   bands (ev):

   -64.9489 -39.3409 -39.1102 -39.0641 -16.4927 -16.2896  -9.9402  -8.9819
    -8.2962  -7.3290  -6.1899  -5.2350  -4.9151  -1.9397  -1.5002  -0.4666
     0.0359

          k = 0.0000-0.5774 0.0000 ( 15930 PWs)   bands (ev):

   -64.9483 -39.3470 -39.1090 -39.0655 -16.4512 -16.2736  -9.9829  -9.0239
    -8.3147  -7.3494  -6.2043  -5.2122  -4.8700  -1.9280  -1.4490  -0.4368
     0.0480

          k = 0.0417 0.0722 0.0000 ( 16025 PWs)   bands (ev):

   -64.9835 -39.1793 -38.9995 -38.9850 -18.2314 -17.0080  -9.7881  -6.9545
    -6.6995  -6.5055  -5.8244  -5.4946  -4.3520  -1.5867  -1.4921  -1.3292
    -1.3274

          k = 0.0417 0.1203 0.0000 ( 16007 PWs)   bands (ev):

   -64.9811 -39.1745 -39.0236 -38.9908 -18.1318 -16.9656  -9.6776  -7.1632
    -6.7585  -6.5990  -5.9952  -5.3886  -4.3974  -1.7291  -1.6857  -1.4352
    -1.1606

          k = 0.0417 0.1684 0.0000 ( 15996 PWs)   bands (ev):

   -64.9777 -39.1678 -39.0574 -38.9989 -17.9874 -16.9042  -9.5284  -7.4295
    -7.0411  -6.4563  -6.2132  -5.3523  -4.4912  -1.9611  -1.7357  -1.5667
    -0.9506

          k = 0.0417 0.2165 0.0000 ( 15986 PWs)   bands (ev):

   -64.9735 -39.1595 -39.0987 -39.0089 -17.8041 -16.8263  -9.3675  -7.7095
    -7.3408  -6.4470  -6.2822  -5.4035  -4.6459  -2.1244  -1.6997  -1.6909
    -0.7277

          k = 0.0417 0.2646 0.0000 ( 15967 PWs)   bands (ev):

   -64.9689 -39.1503 -39.1443 -39.0200 -17.5902 -16.7358  -9.2440  -7.9506
    -7.6529  -6.6710  -6.0916  -5.5242  -4.8430  -2.1917  -1.8112  -1.5487
    -0.5164

          k = 0.0417 0.3127 0.0000 ( 15962 PWs)   bands (ev):

   -64.9641 -39.1912 -39.1407 -39.0315 -17.3561 -16.6376  -9.2277  -8.0957
    -7.9694  -6.8691  -5.9050  -5.6796  -5.0255  -2.1758  -1.8802  -1.3374
    -0.3336

          k = 0.0417 0.3608 0.0000 ( 15935 PWs)   bands (ev):

   -64.9595 -39.2362 -39.1314 -39.0426 -17.1155 -16.5378  -9.3431  -8.2758
    -8.1432  -7.0338  -5.8372  -5.7455  -5.1222  -2.1139  -1.8860  -1.0950
    -0.1900

          k = 0.0417 0.4090 0.0000 ( 15925 PWs)   bands (ev):

   -64.9553 -39.2763 -39.1231 -39.0524 -16.8850 -16.4436  -9.5291  -8.5532
    -8.1667  -7.1638  -5.9756  -5.6207  -5.0997  -2.0479  -1.8141  -0.8573
    -0.0915

          k = 0.0417 0.4571 0.0000 ( 15918 PWs)   bands (ev):

   -64.9519 -39.3088 -39.1163 -39.0605 -16.6842 -16.3630  -9.7176  -8.7822
    -8.2111  -7.2601  -6.0835  -5.5153  -4.9969  -1.9925  -1.6854  -0.6517
    -0.0394

          k = 0.0417 0.5052 0.0000 ( 15917 PWs)   bands (ev):

   -64.9495 -39.3317 -39.1115 -39.0662 -16.5339 -16.3037  -9.8657  -8.9455
    -8.2652  -7.3237  -6.1562  -5.4319  -4.8770  -1.9495  -1.5467  -0.4972
    -0.0267

          k = 0.0417 0.5533 0.0000 ( 15918 PWs)   bands (ev):

   -64.9483 -39.3436 -39.1090 -39.0691 -16.4531 -16.2723  -9.9469  -9.0306
    -8.3010  -7.3554  -6.1926  -5.3866  -4.7972  -1.9258  -1.4525  -0.4103
    -0.0336

          k = 0.0833 0.1443 0.0000 ( 16015 PWs)   bands (ev):

   -64.9782 -39.1689 -39.0513 -38.9983 -18.0110 -16.9142  -9.5507  -7.3861
    -6.9787  -6.4842  -6.2376  -5.3057  -4.4723  -1.9290  -1.7633  -1.5560
    -0.9642

          k = 0.0833 0.1925 0.0000 ( 15995 PWs)   bands (ev):

   -64.9745 -39.1615 -39.0871 -39.0083 -17.8487 -16.8451  -9.3982  -7.6406
    -7.2221  -6.5213  -6.3405  -5.2831  -4.6000  -2.1058  -1.7814  -1.6808
    -0.7389

          k = 0.0833 0.2406 0.0000 ( 15975 PWs)   bands (ev):

   -64.9702 -39.1529 -39.1283 -39.0200 -17.6520 -16.7615  -9.2571  -7.8800
    -7.4942  -6.7908  -6.1864  -5.3409  -4.7731  -2.2222  -1.7766  -1.7072
    -0.5165

          k = 0.0833 0.2887 0.0000 ( 15957 PWs)   bands (ev):

   -64.9656 -39.1723 -39.1436 -39.0326 -17.4300 -16.6677  -9.1891  -8.0471
    -7.8001  -7.0068  -6.0488  -5.4657  -4.9465  -2.2667  -1.8227  -1.5463
    -0.3197

          k = 0.0833 0.3368 0.0000 ( 15958 PWs)   bands (ev):

   -64.9610 -39.2159 -39.1344 -39.0452 -17.1948 -16.5689  -9.2462  -8.1237
    -8.1097  -7.1604  -5.9561  -5.6277  -5.0492  -2.2443  -1.8158  -1.3279
    -0.1648

          k = 0.0833 0.3849 0.0000 ( 15936 PWs)   bands (ev):

   -64.9566 -39.2563 -39.1257 -39.0569 -16.9613 -16.4720  -9.3990  -8.4350
    -8.1214  -7.2620  -5.9037  -5.7978  -5.0416  -2.1666  -1.7676  -1.0855
    -0.0640

          k = 0.0833 0.4330 0.0000 ( 15917 PWs)   bands (ev):

   -64.9529 -39.2908 -39.1183 -39.0670 -16.7474 -16.3845  -9.5787  -8.7063
    -8.1512  -7.3245  -5.9529  -5.8514  -4.9516  -2.0601  -1.6875  -0.8466
    -0.0256

          k = 0.0833 0.4811 0.0000 ( 15928 PWs)   bands (ev):

   -64.9501 -39.3172 -39.1126 -39.0746 -16.5731 -16.3142  -9.7369  -8.9160
    -8.2074  -7.3590  -6.0764  -5.7897  -4.8286  -1.9729  -1.5738  -0.6282
    -0.0507

          k = 0.0833 0.5292 0.0000 ( 15912 PWs)   bands (ev):

   -64.9483 -39.3337 -39.1090 -39.0795 -16.4583 -16.2686  -9.8440  -9.0483
    -8.2599  -7.3750  -6.1560  -5.7411  -4.7216  -1.9324  -1.4537  -0.4400
    -0.1296

          k = 0.0833 0.5774 0.0000 ( 15928 PWs)   bands (ev):

   -64.9476 -39.3393 -39.1077 -39.0811 -16.4181 -16.2528  -9.8819  -9.0936
    -8.2808  -7.3794  -6.1836  -5.7234  -4.6785  -1.9232  -1.4000  -0.3215
    -0.2134

          k = 0.1250 0.2165 0.0000 ( 15989 PWs)   bands (ev):

   -64.9707 -39.1538 -39.1224 -39.0206 -17.6729 -16.7702  -9.2623  -7.8523
    -7.4135  -6.8672  -6.2226  -5.2621  -4.7481  -2.2333  -1.7752  -1.7668
    -0.5111

          k = 0.1250 0.2646 0.0000 ( 15967 PWs)   bands (ev):

   -64.9664 -39.1611 -39.1452 -39.0347 -17.4678 -16.6829  -9.1693  -8.0127
    -7.6534  -7.1571  -6.1361  -5.3175  -4.9018  -2.3182  -1.7960  -1.6885
    -0.3011

          k = 0.1250 0.3127 0.0000 ( 15951 PWs)   bands (ev):

   -64.9619 -39.2006 -39.1362 -39.0495 -17.2441 -16.5880  -9.1760  -8.0772
    -7.9716  -7.3268  -6.1155  -5.4419  -5.0013  -2.3338  -1.7744  -1.5270
    -0.1303

          k = 0.1250 0.3608 0.0000 ( 15960 PWs)   bands (ev):

   -64.9576 -39.2385 -39.1276 -39.0639 -17.0148 -16.4913  -9.2827  -8.3152
    -8.0715  -7.4061  -6.1530  -5.6098  -5.0077  -2.2692  -1.7242  -1.3175
    -0.0126

          k = 0.1250 0.4090 0.0000 ( 15947 PWs)   bands (ev):

   -64.9537 -39.2721 -39.1198 -39.0769 -16.7961 -16.3999  -9.4331  -8.6308
    -8.0749  -7.4329  -6.1889  -5.7921  -4.9357  -2.1438  -1.6613  -1.0905
     0.0430

          k = 0.1250 0.4571 0.0000 ( 15930 PWs)   bands (ev):

   -64.9505 -39.2995 -39.1135 -39.0875 -16.6065 -16.3214  -9.5786  -8.8889
    -8.1230  -7.4278  -6.1874  -5.9623  -4.8178  -2.0191  -1.5727  -0.8712
     0.0359

          k = 0.1250 0.5052 0.0000 ( 15927 PWs)   bands (ev):

   -64.9483 -39.3187 -39.1090 -39.0951 -16.4654 -16.2636  -9.6906  -9.0711
    -8.1906  -7.4079  -6.1644  -6.0962  -4.6914  -1.9635  -1.4405  -0.6805
    -0.0203

          k = 0.1250 0.5533 0.0000 ( 15918 PWs)   bands (ev):

   -64.9471 -39.3286 -39.1067 -39.0989 -16.3898 -16.2329  -9.7511  -9.1653
    -8.2367  -7.3912  -6.1710  -6.1466  -4.6067  -1.9599  -1.3308  -0.5518
    -0.0857

          k = 0.1667 0.2887 0.0000 ( 15971 PWs)   bands (ev):

   -64.9622 -39.1948 -39.1369 -39.0516 -17.2607 -16.5944  -9.1503  -8.0633
    -7.8899  -7.4176  -6.1748  -5.3682  -4.9850  -2.3657  -1.7611  -1.6054
    -0.1157

          k = 0.1667 0.3368 0.0000 ( 15955 PWs)   bands (ev):

   -64.9580 -39.2274 -39.1285 -39.0694 -17.0423 -16.5010  -9.2131  -8.2254
    -8.0360  -7.5186  -6.3019  -5.4906  -4.9935  -2.3262  -1.7013  -1.4618
     0.0229

          k = 0.1667 0.3849 0.0000 ( 15934 PWs)   bands (ev):

   -64.9542 -39.2572 -39.1208 -39.0864 -16.8268 -16.4091  -9.3200  -8.5680
    -7.9992  -7.5326  -6.4517  -5.6612  -4.9353  -2.2060  -1.6381  -1.2831
     0.1087

          k = 0.1667 0.4330 0.0000 ( 15921 PWs)   bands (ev):

   -64.9508 -39.2823 -39.1141 -39.1014 -16.6308 -16.3257  -9.4297  -8.8652
    -8.0172  -7.5011  -6.5547  -5.8501  -4.8269  -2.0683  -1.5589  -1.0998
     0.1432

          k = 0.1667 0.4811 0.0000 ( 15944 PWs)   bands (ev):

   -64.9483 -39.3013 -39.1131 -39.1090 -16.4724 -16.2586  -9.5182  -9.0925
    -8.0904  -7.4465  -6.5957  -6.0260  -4.6899  -2.0101  -1.4179  -0.9392
     0.1374

          k = 0.1667 0.5292 0.0000 ( 15926 PWs)   bands (ev):

   -64.9466 -39.3131 -39.1205 -39.1058 -16.3688 -16.2149  -9.5741  -9.2349
    -8.1672  -7.3937  -6.6032  -6.1553  -4.5678  -2.0303  -1.2558  -0.8263
     0.1137

          k = 0.1667 0.5774 0.0000 ( 15928 PWs)   bands (ev):

   -64.9461 -39.3172 -39.1230 -39.1047 -16.3327 -16.1997  -9.5931  -9.2834
    -8.1988  -7.3711  -6.6029  -6.2039  -4.5176  -2.0498  -1.1839  -0.7847
     0.1008

          k = 0.2083 0.3608 0.0000 ( 15927 PWs)   bands (ev):

   -64.9543 -39.2513 -39.1211 -39.0905 -16.8372 -16.4121  -9.2769  -8.5422
    -7.9642  -7.5736  -6.5551  -5.6107  -4.9369  -2.2284  -1.6296  -1.3555
     0.1344

          k = 0.2083 0.4090 0.0000 ( 15931 PWs)   bands (ev):

   -64.9510 -39.2710 -39.1145 -39.1110 -16.6436 -16.3276  -9.3375  -8.8505
    -7.9241  -7.5476  -6.7984  -5.7805  -4.8369  -2.0985  -1.5485  -1.2331
     0.2104

          k = 0.2083 0.4571 0.0000 ( 15949 PWs)   bands (ev):

   -64.9483 -39.2860 -39.1288 -39.1090 -16.4775 -16.2549  -9.3766  -9.1073
    -7.9640  -7.4775  -6.9638  -5.9686  -4.6980  -2.0493  -1.3988  -1.1217
     0.2588

          k = 0.2083 0.5052 0.0000 ( 15946 PWs)   bands (ev):

   -64.9463 -39.2960 -39.1419 -39.1052 -16.3553 -16.2012  -9.3910  -9.2897
    -8.0644  -7.3927  -7.0386  -6.1384  -4.5481  -2.1028  -1.1960  -1.0402
     0.2864

          k = 0.2083 0.5533 0.0000 ( 15938 PWs)   bands (ev):

   -64.9453 -39.3010 -39.1489 -39.1032 -16.2903 -16.1726  -9.3913  -9.3842
    -8.1454  -7.3311  -7.0614  -6.2446  -4.4449  -2.1683  -1.0503  -0.9979
     0.2985

          k = 0.2500 0.4330 0.0000 ( 15966 PWs)   bands (ev):

   -64.9483 -39.2796 -39.1353 -39.1090 -16.4794 -16.2536  -9.3209  -9.1125
    -7.8854  -7.4893  -7.1322  -5.9463  -4.7022  -2.0643  -1.3916  -1.1870
     0.3039

          k = 0.2500 0.4811 0.0000 ( 15945 PWs)   bands (ev):

   -64.9462 -39.2835 -39.1567 -39.1048 -16.3487 -16.1938  -9.3198  -9.2680
    -7.9347  -7.3919  -7.3685  -6.1268  -4.5397  -2.1474  -1.1638  -1.1565
     0.3865

          k = 0.2500 0.5292 0.0000 ( 15948 PWs)   bands (ev):

   -64.9449 -39.2842 -39.1719 -39.1022 -16.2643 -16.1548  -9.4517  -9.1986
    -8.0652  -7.4626  -7.2936  -6.2782  -4.3929  -2.2670  -1.1416  -0.9604
     0.4447

          k = 0.2500 0.5774 0.0000 ( 15936 PWs)   bands (ev):

   -64.9444 -39.2841 -39.1775 -39.1013 -16.2351 -16.1412  -9.4970  -9.1631
    -8.1365  -7.4814  -7.2490  -6.3411  -4.3309  -2.3231  -1.1374  -0.8782
     0.4657

          k = 0.2917 0.5052 0.0000 ( 15932 PWs)   bands (ev):

   -64.9447 -39.2760 -39.1822 -39.1019 -16.2556 -16.1485  -9.4754  -9.1125
    -7.9858  -7.6718  -7.2784  -6.2913  -4.3734  -2.3054  -1.1920  -0.9292
     0.4985

          k = 0.2917 0.5533 0.0000 ( 15934 PWs)   bands (ev):

   -64.9439 -39.2679 -39.1996 -39.1004 -16.2067 -16.1244  -9.5573  -8.9624
    -8.1550  -7.7589  -7.1877  -6.4087  -4.2569  -2.4270  -1.2139  -0.7812
     0.5637

          k = 0.3333 0.5774 0.0000 ( 15894 PWs)   bands (ev):

   -64.9436 -39.2568 -39.2146 -39.0997 -16.1869 -16.1138  -9.5939  -8.8080
    -8.2855  -7.8344  -7.1371  -6.4675  -4.1995  -2.4956  -1.2398  -0.7139
     0.6077

     the Fermi energy is    -2.3937 ev

!    total energy              =    -184.92026179 Ry
     estimated scf accuracy    <          5.8E-13 Ry
     smearing contrib. (-TS)   =      -0.00158507 Ry
     internal energy E=F+TS    =    -184.91867671 Ry

     The total energy is F=E-TS. E is the sum of the following terms:
     one-electron contribution =   -1382.05285643 Ry
     hartree contribution      =     688.31948154 Ry
     xc contribution           =     -33.41214423 Ry
     ewald contribution        =     542.22684241 Ry

     convergence has been achieved in  14 iterations

     Writing all to output data dir ./mos2.save/ :
     XML data file, charge density, pseudopotentials, collected wavefunctions
 
     init_run     :      0.63s CPU      2.88s WALL (       1 calls)
     electrons    :     20.25s CPU     21.73s WALL (       1 calls)

     Called by init_run:
     wfcinit      :      0.34s CPU      0.88s WALL (       1 calls)
     potinit      :      0.15s CPU      0.27s WALL (       1 calls)
     hinit0       :      0.09s CPU      0.62s WALL (       1 calls)

     Called by electrons:
     c_bands      :     14.61s CPU     14.79s WALL (      14 calls)
     sum_band     :      2.71s CPU      2.75s WALL (      14 calls)
     v_of_rho     :      1.77s CPU      1.86s WALL (      15 calls)
     mix_rho      :      0.26s CPU      0.28s WALL (      14 calls)

     Called by c_bands:
     init_us_2    :      0.29s CPU      0.30s WALL (      58 calls)
     init_us_2:cp :      0.29s CPU      0.30s WALL (      58 calls)
     cegterg      :     12.48s CPU     12.64s WALL (      28 calls)

     Called by *egterg:
     cdiaghg      :      0.04s CPU      0.06s WALL (     115 calls)
     h_psi        :     11.32s CPU     11.46s WALL (     117 calls)
     g_psi        :      0.03s CPU      0.03s WALL (      87 calls)

     Called by h_psi:
     h_psi:calbec :      0.46s CPU      0.47s WALL (     117 calls)
     vloc_psi     :     10.21s CPU     10.30s WALL (     117 calls)
     add_vuspsi   :      0.57s CPU      0.57s WALL (     117 calls)

     General routines
     calbec       :      0.46s CPU      0.46s WALL (     117 calls)
     fft          :      0.63s CPU      0.68s WALL (     150 calls)
     ffts         :      0.05s CPU      0.05s WALL (      14 calls)
     fftw         :     10.79s CPU     10.86s WALL (    3114 calls)
 
     Parallel routines
 
     PWSCF        :     20.98s CPU     39.65s WALL

 
   This run was terminated on:   9:59:15  25Apr2024            

=------------------------------------------------------------------------------=
   JOB DONE.
=------------------------------------------------------------------------------=
