
     Program PWSCF v.7.3 starts on 29Apr2024 at  9:43: 1 

     This program is part of the open-source Quantum ESPRESSO suite
     for quantum simulation of materials; please cite
         "P. Giannozzi et al., J. Phys.:Condens. Matter 21 395502 (2009);
         "P. Giannozzi et al., J. Phys.:Condens. Matter 29 465901 (2017);
         "P. Giannozzi et al., J. Chem. Phys. 152 154105 (2020);
          URL http://www.quantum-espresso.org", 
     in publications or presentations arising from this work. More details at
     http://www.quantum-espresso.org/quote

     Parallel version (MPI), running on    48 processors

     MPI processes distributed on     1 nodes
     250615 MiB available memory on the printing compute node when the environment starts
 
     Reading input from sc.in

     Current dimensions of program PWSCF are:
     Max number of different atomic species (ntypx) = 10
     Max number of k-points (npk) =  40000
     Max angular momentum in pseudopotentials (lmaxx) =  4
 
     K-points division:     npool     =      48
     Subspace diagonalization in iterative solution of the eigenvalue problem:
     a serial algorithm will be used

 
     G-vector sticks info
     --------------------
     sticks:   dense  smooth     PW     G-vecs:    dense   smooth      PW
     Sum        1003    1003    283               127553   127553   19429
 
     Using Slab Decomposition
 


     bravais-lattice index     =            4
     lattice parameter (alat)  =       6.0199  a.u.
     unit-cell volume          =     944.6376 (a.u.)^3
     number of atoms/cell      =            3
     number of atomic types    =            2
     number of electrons       =        26.12
     number of Kohn-Sham states=           17
     kinetic-energy cutoff     =     100.0000  Ry
     charge density cutoff     =     400.0000  Ry
     scf convergence threshold =      1.0E-12
     mixing beta               =       0.7000
     number of iterations used =            8  plain     mixing
     Exchange-correlation= PBE
                           (   1   4   3   4   0   0   0)

     celldm(1)=   6.019885  celldm(2)=   0.000000  celldm(3)=   5.000000
     celldm(4)=   0.000000  celldm(5)=   0.000000  celldm(6)=   0.000000

     crystal axes: (cart. coord. in units of alat)
               a(1) = (   1.000000   0.000000   0.000000 )  
               a(2) = (  -0.500000   0.866025   0.000000 )  
               a(3) = (   0.000000   0.000000   5.000000 )  

     reciprocal axes: (cart. coord. in units 2 pi/alat)
               b(1) = (  1.000000  0.577350  0.000000 )  
               b(2) = (  0.000000  1.154701  0.000000 )  
               b(3) = (  0.000000  0.000000  0.200000 )  


     PseudoPot. # 1 for Mo read from file:
     ../pseudo/Mo.UPF
     MD5 check sum: 4e1c3579de4f68baf863f15f5be96aa1
     Pseudo is Norm-conserving + core correction, Zval = 14.0
     Generated using ONCVPSP code by D. R. Hamann
     Using radial grid of 1640 points,  6 beta functions with: 
                l(1) =   0
                l(2) =   0
                l(3) =   1
                l(4) =   1
                l(5) =   2
                l(6) =   2

     PseudoPot. # 2 for S  read from file:
     ../pseudo/S.UPF
     MD5 check sum: a7319d53700e7dada26ada44d0048388
     Pseudo is Norm-conserving + core correction, Zval =  6.0
     Generated using ONCVPSP code by D. R. Hamann
     Using radial grid of 1146 points,  6 beta functions with: 
                l(1) =   0
                l(2) =   0
                l(3) =   1
                l(4) =   1
                l(5) =   2
                l(6) =   2

     atomic species   valence    mass     pseudopotential
     Mo               14.00    95.95000     Mo( 1.00)
     S                 6.00    32.06000     S ( 1.00)

     12 Sym. Ops. (no inversion) found



   Cartesian axes

     site n.     atom                  positions (alat units)
         1        Mo     tau(   1) = (   0.0000000   0.0000000   0.0000000  )
         2        S      tau(   2) = (   0.5000000   0.2886750  -0.4913414  )
         3        S      tau(   3) = (   0.5000000   0.2886750   0.4913414  )

     number of k points=    61  Fermi-Dirac smearing, width (Ry)=  0.0050
                       cart. coord. in units 2pi/alat
        k(    1) = (   0.0000000   0.0000000   0.0000000), wk =   0.0034722
        k(    2) = (   0.0000000   0.0481125   0.0000000), wk =   0.0208333
        k(    3) = (   0.0000000   0.0962250   0.0000000), wk =   0.0208333
        k(    4) = (   0.0000000   0.1443376   0.0000000), wk =   0.0208333
        k(    5) = (   0.0000000   0.1924501   0.0000000), wk =   0.0208333
        k(    6) = (   0.0000000   0.2405626   0.0000000), wk =   0.0208333
        k(    7) = (   0.0000000   0.2886751   0.0000000), wk =   0.0208333
        k(    8) = (   0.0000000   0.3367877   0.0000000), wk =   0.0208333
        k(    9) = (   0.0000000   0.3849002   0.0000000), wk =   0.0208333
        k(   10) = (   0.0000000   0.4330127   0.0000000), wk =   0.0208333
        k(   11) = (   0.0000000   0.4811252   0.0000000), wk =   0.0208333
        k(   12) = (   0.0000000   0.5292377   0.0000000), wk =   0.0208333
        k(   13) = (   0.0000000  -0.5773503   0.0000000), wk =   0.0104167
        k(   14) = (   0.0416667   0.0721688   0.0000000), wk =   0.0208333
        k(   15) = (   0.0416667   0.1202813   0.0000000), wk =   0.0416667
        k(   16) = (   0.0416667   0.1683938   0.0000000), wk =   0.0416667
        k(   17) = (   0.0416667   0.2165064   0.0000000), wk =   0.0416667
        k(   18) = (   0.0416667   0.2646189   0.0000000), wk =   0.0416667
        k(   19) = (   0.0416667   0.3127314   0.0000000), wk =   0.0416667
        k(   20) = (   0.0416667   0.3608439   0.0000000), wk =   0.0416667
        k(   21) = (   0.0416667   0.4089564   0.0000000), wk =   0.0416667
        k(   22) = (   0.0416667   0.4570690   0.0000000), wk =   0.0416667
        k(   23) = (   0.0416667   0.5051815   0.0000000), wk =   0.0416667
        k(   24) = (   0.0416667   0.5532940   0.0000000), wk =   0.0416667
        k(   25) = (   0.0833333   0.1443376   0.0000000), wk =   0.0208333
        k(   26) = (   0.0833333   0.1924501   0.0000000), wk =   0.0416667
        k(   27) = (   0.0833333   0.2405626   0.0000000), wk =   0.0416667
        k(   28) = (   0.0833333   0.2886751   0.0000000), wk =   0.0416667
        k(   29) = (   0.0833333   0.3367877   0.0000000), wk =   0.0416667
        k(   30) = (   0.0833333   0.3849002   0.0000000), wk =   0.0416667
        k(   31) = (   0.0833333   0.4330127   0.0000000), wk =   0.0416667
        k(   32) = (   0.0833333   0.4811252   0.0000000), wk =   0.0416667
        k(   33) = (   0.0833333   0.5292377   0.0000000), wk =   0.0416667
        k(   34) = (   0.0833333   0.5773503   0.0000000), wk =   0.0208333
        k(   35) = (   0.1250000   0.2165064   0.0000000), wk =   0.0208333
        k(   36) = (   0.1250000   0.2646189   0.0000000), wk =   0.0416667
        k(   37) = (   0.1250000   0.3127314   0.0000000), wk =   0.0416667
        k(   38) = (   0.1250000   0.3608439   0.0000000), wk =   0.0416667
        k(   39) = (   0.1250000   0.4089564   0.0000000), wk =   0.0416667
        k(   40) = (   0.1250000   0.4570690   0.0000000), wk =   0.0416667
        k(   41) = (   0.1250000   0.5051815   0.0000000), wk =   0.0416667
        k(   42) = (   0.1250000   0.5532940   0.0000000), wk =   0.0416667
        k(   43) = (   0.1666667   0.2886751   0.0000000), wk =   0.0208333
        k(   44) = (   0.1666667   0.3367877   0.0000000), wk =   0.0416667
        k(   45) = (   0.1666667   0.3849002   0.0000000), wk =   0.0416667
        k(   46) = (   0.1666667   0.4330127   0.0000000), wk =   0.0416667
        k(   47) = (   0.1666667   0.4811252   0.0000000), wk =   0.0416667
        k(   48) = (   0.1666667   0.5292377   0.0000000), wk =   0.0416667
        k(   49) = (   0.1666667   0.5773503   0.0000000), wk =   0.0208333
        k(   50) = (   0.2083333   0.3608439   0.0000000), wk =   0.0208333
        k(   51) = (   0.2083333   0.4089564   0.0000000), wk =   0.0416667
        k(   52) = (   0.2083333   0.4570690   0.0000000), wk =   0.0416667
        k(   53) = (   0.2083333   0.5051815   0.0000000), wk =   0.0416667
        k(   54) = (   0.2083333   0.5532940   0.0000000), wk =   0.0416667
        k(   55) = (   0.2500000   0.4330127   0.0000000), wk =   0.0208333
        k(   56) = (   0.2500000   0.4811252   0.0000000), wk =   0.0416667
        k(   57) = (   0.2500000   0.5292377   0.0000000), wk =   0.0416667
        k(   58) = (   0.2500000   0.5773503   0.0000000), wk =   0.0208333
        k(   59) = (   0.2916667   0.5051815   0.0000000), wk =   0.0208333
        k(   60) = (   0.2916667   0.5532940   0.0000000), wk =   0.0416667
        k(   61) = (   0.3333333   0.5773503   0.0000000), wk =   0.0069444

     Dense  grid:   127553 G-vectors     FFT dimensions: (  40,  40, 192)

     Estimated max dynamical RAM per process >     123.41 MB

     Estimated total dynamical RAM >       4.36 GB
 ----2D----2D----2D----2D----2D----2D----2D----2D----2D----2D----2D----2D
  The code is running with the 2D cutoff
  Please refer to:
  Sohier, T., Calandra, M., & Mauri, F. (2017), 
  Density functional perturbation theory for gated two-dimensional heterostructu
 res:
  Theoretical developments and application to flexural phonons in graphene.
  Physical Review B, 96(7), 75448. https://doi.org/10.1103/PhysRevB.96.075448
 ----2D----2D----2D----2D----2D----2D----2D----2D----2D----2D----2D----2D

     Initial potential from superposition of free atoms

     starting charge      25.9985, renormalised to      26.1200

     negative rho (up, down):  7.066E-06 0.000E+00
     Starting wfcs are   18 randomized atomic wfcs

     total cpu time spent up to now is        1.6 secs

     Self-consistent Calculation

     iteration #  1     ecut=   100.00 Ry     beta= 0.70
     Davidson diagonalization with overlap
     ethr =  1.00E-02,  avg # of iterations =  3.7

     total cpu time spent up to now is        4.2 secs

     total energy              =    -184.32947045 Ry
     estimated scf accuracy    <       0.89415360 Ry

     iteration #  2     ecut=   100.00 Ry     beta= 0.70
     Davidson diagonalization with overlap
     ethr =  3.42E-03,  avg # of iterations =  3.8

     total cpu time spent up to now is        7.3 secs

     total energy              =    -183.37738079 Ry
     estimated scf accuracy    <      12.74434750 Ry

     iteration #  3     ecut=   100.00 Ry     beta= 0.70
     Davidson diagonalization with overlap
     ethr =  3.42E-03,  avg # of iterations =  2.7

     total cpu time spent up to now is        9.9 secs

     total energy              =    -184.90875750 Ry
     estimated scf accuracy    <       0.03625283 Ry

     iteration #  4     ecut=   100.00 Ry     beta= 0.70
     Davidson diagonalization with overlap
     ethr =  1.39E-04,  avg # of iterations =  4.2

     total cpu time spent up to now is       12.9 secs

     total energy              =    -184.91740641 Ry
     estimated scf accuracy    <       0.01534241 Ry

     iteration #  5     ecut=   100.00 Ry     beta= 0.70
     Davidson diagonalization with overlap
     ethr =  5.87E-05,  avg # of iterations =  2.0

     negative rho (up, down):  1.201E-05 0.000E+00

     total cpu time spent up to now is       15.2 secs

     total energy              =    -184.91777608 Ry
     estimated scf accuracy    <       0.00284247 Ry

     iteration #  6     ecut=   100.00 Ry     beta= 0.70
     Davidson diagonalization with overlap
     ethr =  1.09E-05,  avg # of iterations =  2.6

     total cpu time spent up to now is       17.7 secs

     total energy              =    -184.91836493 Ry
     estimated scf accuracy    <       0.00064728 Ry

     iteration #  7     ecut=   100.00 Ry     beta= 0.70
     Davidson diagonalization with overlap
     ethr =  2.48E-06,  avg # of iterations =  2.5

     total cpu time spent up to now is       20.1 secs

     total energy              =    -184.91845220 Ry
     estimated scf accuracy    <       0.00000464 Ry

     iteration #  8     ecut=   100.00 Ry     beta= 0.70
     Davidson diagonalization with overlap
     ethr =  1.78E-08,  avg # of iterations =  5.0

     total cpu time spent up to now is       23.5 secs

     total energy              =    -184.91845778 Ry
     estimated scf accuracy    <       0.00000061 Ry

     iteration #  9     ecut=   100.00 Ry     beta= 0.70
     Davidson diagonalization with overlap
     ethr =  2.32E-09,  avg # of iterations =  3.2

     total cpu time spent up to now is       26.4 secs

     total energy              =    -184.91845791 Ry
     estimated scf accuracy    <       0.00000027 Ry

     iteration # 10     ecut=   100.00 Ry     beta= 0.70
     Davidson diagonalization with overlap
     ethr =  1.03E-09,  avg # of iterations =  2.0

     total cpu time spent up to now is       28.9 secs

     total energy              =    -184.91845798 Ry
     estimated scf accuracy    <       0.00000001 Ry

     iteration # 11     ecut=   100.00 Ry     beta= 0.70
     Davidson diagonalization with overlap
     ethr =  4.02E-11,  avg # of iterations =  2.9

     total cpu time spent up to now is       31.4 secs

     total energy              =    -184.91845798 Ry
     estimated scf accuracy    <          4.2E-09 Ry

     iteration # 12     ecut=   100.00 Ry     beta= 0.70
     Davidson diagonalization with overlap
     ethr =  1.61E-11,  avg # of iterations =  2.0

     total cpu time spent up to now is       33.8 secs

     total energy              =    -184.91845798 Ry
     estimated scf accuracy    <          2.1E-11 Ry

     iteration # 13     ecut=   100.00 Ry     beta= 0.70
     Davidson diagonalization with overlap
     ethr =  1.00E-13,  avg # of iterations =  5.4

     total cpu time spent up to now is       37.5 secs

     total energy              =    -184.91845798 Ry
     estimated scf accuracy    <          4.4E-11 Ry

     iteration # 14     ecut=   100.00 Ry     beta= 0.70
     Davidson diagonalization with overlap
     ethr =  1.00E-13,  avg # of iterations =  2.4

     total cpu time spent up to now is       40.0 secs

     End of self-consistent calculation

          k = 0.0000 0.0000 0.0000 ( 15995 PWs)   bands (ev):

   -65.1076 -39.3040 -39.1030 -39.1030 -18.4236 -17.1549  -9.9881  -6.8977
    -6.8977  -6.3031  -5.8088  -5.8088  -4.4364  -1.5838  -1.5838  -1.3580
    -1.3580

          k = 0.0000 0.0481 0.0000 ( 16053 PWs)   bands (ev):

   -65.1070 -39.3028 -39.1095 -39.1045 -18.3979 -17.1440  -9.9583  -6.9586
    -6.8712  -6.4323  -5.8519  -5.7177  -4.4436  -1.6279  -1.5367  -1.4497
    -1.3876

          k = 0.0000 0.0962 0.0000 ( 16041 PWs)   bands (ev):

   -65.1051 -39.2991 -39.1283 -39.1088 -18.3221 -17.1117  -9.8718  -7.1292
    -6.7928  -6.6895  -5.9722  -5.5823  -4.4714  -1.7270  -1.6730  -1.4708
    -1.4059

          k = 0.0000 0.1443 0.0000 ( 16007 PWs)   bands (ev):

   -65.1022 -39.2932 -39.1580 -39.1156 -18.1989 -17.0594  -9.7380  -7.3785
    -6.9839  -6.6670  -6.1488  -5.5099  -4.5376  -1.9315  -1.8075  -1.5920
    -1.2168

          k = 0.0000 0.1925 0.0000 ( 15997 PWs)   bands (ev):

   -65.0984 -39.2856 -39.1966 -39.1244 -18.0333 -16.9891  -9.5765  -7.6655
    -7.2938  -6.5012  -6.3570  -5.5303  -4.6624  -2.1429  -1.8059  -1.7312
    -0.9996

          k = 0.0000 0.2406 0.0000 ( 15985 PWs)   bands (ev):

   -65.0939 -39.2767 -39.2413 -39.1347 -17.8325 -16.9042  -9.4241  -7.9421
    -7.6114  -6.5756  -6.3059  -5.6323  -4.8474  -2.2573  -1.8679  -1.7008
    -0.7814

          k = 0.0000 0.2887 0.0000 ( 15975 PWs)   bands (ev):

   -65.0891 -39.2888 -39.2671 -39.1457 -17.6059 -16.8089  -9.3439  -8.1500
    -7.9305  -6.7881  -6.0951  -5.7797  -5.0563  -2.2662  -1.9839  -1.5115
    -0.5819

          k = 0.0000 0.3368 0.0000 ( 15941 PWs)   bands (ev):

   -65.0843 -39.3360 -39.2575 -39.1567 -17.3654 -16.7088  -9.3968  -8.2475
    -8.2416  -6.9827  -5.9347  -5.8854  -5.2250  -2.1911  -2.0659  -1.2760
    -0.4134

          k = 0.0000 0.3849 0.0000 ( 15944 PWs)   bands (ev):

   -65.0798 -39.3797 -39.2486 -39.1669 -17.1262 -16.6107  -9.5605  -8.5305
    -8.2773  -7.1509  -6.0720  -5.6940  -5.2958  -2.1070  -2.0615  -1.0351
    -0.2805

          k = 0.0000 0.4330 0.0000 ( 15928 PWs)   bands (ev):

   -65.0760 -39.4170 -39.2409 -39.1756 -16.9065 -16.5222  -9.7591  -8.7803
    -8.3108  -7.2868  -6.1799  -5.5359  -5.2540  -2.1097  -1.9040  -0.8244
    -0.1830

          k = 0.0000 0.4811 0.0000 ( 15916 PWs)   bands (ev):

   -65.0730 -39.4455 -39.2350 -39.1823 -16.7271 -16.4513  -9.9359  -8.9738
    -8.3627  -7.3864  -6.2552  -5.4204  -5.1415  -2.0873  -1.7448  -0.6688
    -0.1175

          k = 0.0000 0.5292 0.0000 ( 15920 PWs)   bands (ev):

   -65.0712 -39.4633 -39.2313 -39.1865 -16.6087 -16.4052 -10.0562  -9.0965
    -8.4099  -7.4471  -6.2992  -5.3514  -5.0307  -2.0607  -1.6177  -0.5773
    -0.0801

          k = 0.0000-0.5774 0.0000 ( 15930 PWs)   bands (ev):

   -65.0705 -39.4694 -39.2300 -39.1880 -16.5672 -16.3893 -10.0987  -9.1385
    -8.4285  -7.4675  -6.3136  -5.3285  -4.9855  -2.0491  -1.5672  -0.5478
    -0.0681

          k = 0.0417 0.0722 0.0000 ( 16025 PWs)   bands (ev):

   -65.1058 -39.3003 -39.1220 -39.1075 -18.3472 -17.1224  -9.9001  -7.0739
    -6.8191  -6.6132  -5.9428  -5.6070  -4.4611  -1.7028  -1.6042  -1.4460
    -1.4446

          k = 0.0417 0.1203 0.0000 ( 16007 PWs)   bands (ev):

   -65.1034 -39.2955 -39.1460 -39.1132 -18.2476 -17.0801  -9.7895  -7.2824
    -6.8684  -6.7184  -6.1135  -5.4991  -4.5080  -1.8385  -1.8007  -1.5520
    -1.2776

          k = 0.0417 0.1684 0.0000 ( 15996 PWs)   bands (ev):

   -65.1000 -39.2888 -39.1799 -39.1214 -18.1032 -17.0187  -9.6405  -7.5482
    -7.1525  -6.5756  -6.3313  -5.4617  -4.6038  -2.0688  -1.8493  -1.6836
    -1.0673

          k = 0.0417 0.2165 0.0000 ( 15986 PWs)   bands (ev):

   -65.0958 -39.2805 -39.2211 -39.1314 -17.9199 -16.9410  -9.4798  -7.8276
    -7.4534  -6.5648  -6.4012  -5.5124  -4.7605  -2.2314  -1.8167  -1.8029
    -0.8441

          k = 0.0417 0.2646 0.0000 ( 15967 PWs)   bands (ev):

   -65.0912 -39.2713 -39.2667 -39.1425 -17.7060 -16.8507  -9.3570  -8.0675
    -7.7665  -6.7887  -6.2103  -5.6331  -4.9591  -2.2993  -1.9283  -1.6594
    -0.6324

          k = 0.0417 0.3127 0.0000 ( 15962 PWs)   bands (ev):

   -65.0864 -39.3136 -39.2617 -39.1539 -17.4719 -16.7526  -9.3421  -8.2107
    -8.0836  -6.9866  -6.0233  -5.7886  -5.1425  -2.2854  -1.9972  -1.4472
    -0.4494

          k = 0.0417 0.3608 0.0000 ( 15935 PWs)   bands (ev):

   -65.0818 -39.3586 -39.2524 -39.1650 -17.2314 -16.6529  -9.4588  -8.3903
    -8.2567  -7.1513  -5.9463  -5.8632  -5.2395  -2.2269  -2.0022  -1.2046
    -0.3057

          k = 0.0417 0.4090 0.0000 ( 15925 PWs)   bands (ev):

   -65.0776 -39.3987 -39.2441 -39.1749 -17.0009 -16.5589  -9.6452  -8.6679
    -8.2797  -7.2814  -6.0849  -5.7377  -5.2169  -2.1647  -1.9293  -0.9671
    -0.2071

          k = 0.0417 0.4571 0.0000 ( 15918 PWs)   bands (ev):

   -65.0742 -39.4312 -39.2373 -39.1829 -16.8001 -16.4784  -9.8337  -8.8969
    -8.3242  -7.3777  -6.1928  -5.6318  -5.1137  -2.1116  -1.8012  -0.7621
    -0.1549

          k = 0.0417 0.5052 0.0000 ( 15917 PWs)   bands (ev):

   -65.0718 -39.4541 -39.2325 -39.1886 -16.6499 -16.4193  -9.9818  -9.0603
    -8.3787  -7.4415  -6.2656  -5.5480  -4.9934  -2.0697  -1.6638  -0.6082
    -0.1422

          k = 0.0417 0.5533 0.0000 ( 15918 PWs)   bands (ev):

   -65.0705 -39.4659 -39.2300 -39.1916 -16.5691 -16.3879 -10.0628  -9.1454
    -8.4148  -7.4732  -6.3020  -5.5025  -4.9133  -2.0466  -1.5707  -0.5215
    -0.1491

          k = 0.0833 0.1443 0.0000 ( 16015 PWs)   bands (ev):

   -65.1005 -39.2899 -39.1738 -39.1208 -18.1268 -17.0287  -9.6627  -7.5050
    -7.0897  -6.6034  -6.3556  -5.4154  -4.5846  -2.0370  -1.8775  -1.6727
    -1.0805

          k = 0.0833 0.1925 0.0000 ( 15995 PWs)   bands (ev):

   -65.0968 -39.2825 -39.2095 -39.1308 -17.9645 -16.9598  -9.5104  -7.7590
    -7.3342  -6.6390  -6.4595  -5.3925  -4.7142  -2.2132  -1.8945  -1.7973
    -0.8543

          k = 0.0833 0.2406 0.0000 ( 15975 PWs)   bands (ev):

   -65.0925 -39.2739 -39.2508 -39.1425 -17.7678 -16.8763  -9.3698  -7.9974
    -7.6073  -6.9080  -6.3050  -5.4504  -4.8890  -2.3301  -1.8929  -1.8193
    -0.6311

          k = 0.0833 0.2887 0.0000 ( 15957 PWs)   bands (ev):

   -65.0879 -39.2947 -39.2647 -39.1551 -17.5458 -16.7826  -9.3030  -8.1629
    -7.9143  -7.1234  -6.1670  -5.5754  -5.0635  -2.3762  -1.9388  -1.6576
    -0.4340

          k = 0.0833 0.3368 0.0000 ( 15958 PWs)   bands (ev):

   -65.0832 -39.3383 -39.2554 -39.1677 -17.3107 -16.6841  -9.3614  -8.2385
    -8.2237  -7.2767  -6.0737  -5.7376  -5.1669  -2.3558  -1.9323  -1.4387
    -0.2789

          k = 0.0833 0.3849 0.0000 ( 15936 PWs)   bands (ev):

   -65.0789 -39.3787 -39.2467 -39.1794 -17.0772 -16.5873  -9.5150  -8.5501
    -8.2344  -7.3783  -6.0208  -5.9077  -5.1594  -2.2801  -1.8846  -1.1964
    -0.1781

          k = 0.0833 0.4330 0.0000 ( 15917 PWs)   bands (ev):

   -65.0752 -39.4132 -39.2393 -39.1894 -16.8633 -16.4999  -9.6948  -8.8214
    -8.2642  -7.4410  -6.0628  -5.9679  -5.0692  -2.1759  -1.8050  -0.9579
    -0.1396

          k = 0.0833 0.4811 0.0000 ( 15928 PWs)   bands (ev):

   -65.0723 -39.4395 -39.2336 -39.1971 -16.6891 -16.4298  -9.8530  -9.0311
    -8.3207  -7.4757  -6.1863  -5.9056  -4.9459  -2.0909  -1.6916  -0.7402
    -0.1645

          k = 0.0833 0.5292 0.0000 ( 15912 PWs)   bands (ev):

   -65.0705 -39.4560 -39.2300 -39.2019 -16.5743 -16.3843  -9.9600  -9.1635
    -8.3735  -7.4919  -6.2658  -5.8567  -4.8386  -2.0520  -1.5720  -0.5528
    -0.2428

          k = 0.0833 0.5774 0.0000 ( 15928 PWs)   bands (ev):

   -65.0699 -39.4617 -39.2288 -39.2036 -16.5342 -16.3685  -9.9978  -9.2087
    -8.3945  -7.4964  -6.2933  -5.8388  -4.7954  -2.0433  -1.5184  -0.4353
    -0.3256

          k = 0.1250 0.2165 0.0000 ( 15989 PWs)   bands (ev):

   -65.0930 -39.2748 -39.2448 -39.1430 -17.7887 -16.8850  -9.3749  -7.9699
    -7.5263  -6.9844  -6.3412  -5.3717  -4.8638  -2.3413  -1.8879  -1.8827
    -0.6251

          k = 0.1250 0.2646 0.0000 ( 15967 PWs)   bands (ev):

   -65.0886 -39.2835 -39.2662 -39.1571 -17.5836 -16.7978  -9.2828  -8.1290
    -7.7674  -7.2733  -6.2541  -5.4274  -5.0188  -2.4275  -1.9117  -1.8006
    -0.4142

          k = 0.1250 0.3127 0.0000 ( 15951 PWs)   bands (ev):

   -65.0842 -39.3230 -39.2573 -39.1719 -17.3599 -16.7031  -9.2908  -8.1917
    -8.0867  -7.4421  -6.2330  -5.5521  -5.1192  -2.4445  -1.8907  -1.6387
    -0.2430

          k = 0.1250 0.3608 0.0000 ( 15960 PWs)   bands (ev):

   -65.0798 -39.3609 -39.2486 -39.1864 -17.1307 -16.6066  -9.3985  -8.4308
    -8.1847  -7.5211  -6.2701  -5.7202  -5.1260  -2.3810  -1.8418  -1.4291
    -0.1254

          k = 0.1250 0.4090 0.0000 ( 15947 PWs)   bands (ev):

   -65.0760 -39.3945 -39.2409 -39.1994 -16.9120 -16.5153  -9.5492  -8.7466
    -8.1877  -7.5480  -6.3055  -5.9026  -5.0540  -2.2569  -1.7801  -1.2024
    -0.0698

          k = 0.1250 0.4571 0.0000 ( 15930 PWs)   bands (ev):

   -65.0728 -39.4218 -39.2345 -39.2100 -16.7225 -16.4369  -9.6948  -9.0047
    -8.2361  -7.5432  -6.3034  -6.0727  -4.9359  -2.1344  -1.6918  -0.9836
    -0.0769

          k = 0.1250 0.5052 0.0000 ( 15927 PWs)   bands (ev):

   -65.0705 -39.4411 -39.2300 -39.2175 -16.5814 -16.3793  -9.8065  -9.1869
    -8.3041  -7.5237  -6.2799  -6.2064  -4.8092  -2.0816  -1.5589  -0.7937
    -0.1327

          k = 0.1250 0.5533 0.0000 ( 15918 PWs)   bands (ev):

   -65.0694 -39.4510 -39.2277 -39.2214 -16.5058 -16.3486  -9.8670  -9.2811
    -8.3504  -7.5072  -6.2810  -6.2618  -4.7243  -2.0794  -1.4491  -0.6659
    -0.1974

          k = 0.1667 0.2887 0.0000 ( 15971 PWs)   bands (ev):

   -65.0845 -39.3172 -39.2579 -39.1740 -17.3766 -16.7095  -9.2650  -8.1781
    -8.0054  -7.5323  -6.2923  -5.4785  -5.1030  -2.4760  -1.8774  -1.7174
    -0.2280

          k = 0.1667 0.3368 0.0000 ( 15955 PWs)   bands (ev):

   -65.0803 -39.3498 -39.2496 -39.1918 -17.1582 -16.6163  -9.3287  -8.3416
    -8.1493  -7.6327  -6.4189  -5.6011  -5.1120  -2.4371  -1.8191  -1.5738
    -0.0891

          k = 0.1667 0.3849 0.0000 ( 15934 PWs)   bands (ev):

   -65.0764 -39.3796 -39.2418 -39.2089 -16.9427 -16.5244  -9.4361  -8.6844
    -8.1119  -7.6467  -6.5684  -5.7719  -5.0540  -2.3176  -1.7575  -1.3952
    -0.0035

          k = 0.1667 0.4330 0.0000 ( 15921 PWs)   bands (ev):

   -65.0731 -39.4047 -39.2352 -39.2239 -16.7467 -16.4412  -9.5459  -8.9816
    -8.1299  -7.6154  -6.6709  -5.9608  -4.9456  -2.1817  -1.6788  -1.2123
     0.0309

          k = 0.1667 0.4811 0.0000 ( 15944 PWs)   bands (ev):

   -65.0705 -39.4237 -39.2355 -39.2300 -16.5884 -16.3742  -9.6342  -9.2088
    -8.2035  -7.5611  -6.7113  -6.1366  -4.8085  -2.1266  -1.5364  -1.0521
     0.0249

          k = 0.1667 0.5292 0.0000 ( 15926 PWs)   bands (ev):

   -65.0689 -39.4355 -39.2429 -39.2268 -16.4849 -16.3306  -9.6900  -9.3512
    -8.2808  -7.5086  -6.7183  -6.2657  -4.6862  -2.1492  -1.3735  -0.9394
     0.0011

          k = 0.1667 0.5774 0.0000 ( 15928 PWs)   bands (ev):

   -65.0684 -39.4395 -39.2454 -39.2257 -16.4488 -16.3155  -9.7089  -9.3996
    -8.3126  -7.4862  -6.7179  -6.3142  -4.6358  -2.1694  -1.3016  -0.8980
    -0.0117

          k = 0.2083 0.3608 0.0000 ( 15927 PWs)   bands (ev):

   -65.0766 -39.3737 -39.2422 -39.2129 -16.9531 -16.5275  -9.3930  -8.6588
    -8.0768  -7.6873  -6.6718  -5.7216  -5.0557  -2.3395  -1.7491  -1.4678
     0.0225

          k = 0.2083 0.4090 0.0000 ( 15931 PWs)   bands (ev):

   -65.0733 -39.3934 -39.2355 -39.2334 -16.7595 -16.4431  -9.4537  -8.9672
    -8.0365  -7.6613  -6.9149  -5.8914  -4.9559  -2.2108  -1.6687  -1.3456
     0.0982

          k = 0.2083 0.4571 0.0000 ( 15949 PWs)   bands (ev):

   -65.0705 -39.4084 -39.2512 -39.2300 -16.5935 -16.3705  -9.4927  -9.2240
    -8.0768  -7.5913  -7.0797  -6.0795  -4.8170  -2.1649  -1.5173  -1.2343
     0.1462

          k = 0.2083 0.5052 0.0000 ( 15946 PWs)   bands (ev):

   -65.0686 -39.4184 -39.2643 -39.2262 -16.4713 -16.3169  -9.5070  -9.4064
    -8.1779  -7.5068  -7.1537  -6.2491  -4.6670  -2.2212  -1.3131  -1.1528
     0.1733

          k = 0.2083 0.5533 0.0000 ( 15938 PWs)   bands (ev):

   -65.0676 -39.4234 -39.2713 -39.2242 -16.4064 -16.2883  -9.5071  -9.5009
    -8.2593  -7.4454  -7.1761  -6.3551  -4.5638  -2.2879  -1.1672  -1.1105
     0.1850

          k = 0.2500 0.4330 0.0000 ( 15966 PWs)   bands (ev):

   -65.0705 -39.4020 -39.2577 -39.2301 -16.5954 -16.3692  -9.4370  -9.2294
    -7.9977  -7.6029  -7.2484  -6.0573  -4.8214  -2.1796  -1.5102  -1.2995
     0.1912

          k = 0.2500 0.4811 0.0000 ( 15945 PWs)   bands (ev):

   -65.0685 -39.4059 -39.2791 -39.2259 -16.4648 -16.3095  -9.4367  -9.3840
    -8.0478  -7.5055  -7.4839  -6.2377  -4.6590  -2.2655  -1.2806  -1.2689
     0.2730

          k = 0.2500 0.5292 0.0000 ( 15948 PWs)   bands (ev):

   -65.0671 -39.4066 -39.2943 -39.2232 -16.3804 -16.2705  -9.5687  -9.3145
    -8.1792  -7.5770  -7.4074  -6.3889  -4.5122  -2.3865  -1.2538  -1.0767
     0.3305

          k = 0.2500 0.5774 0.0000 ( 15936 PWs)   bands (ev):

   -65.0667 -39.4064 -39.2999 -39.2224 -16.3512 -16.2569  -9.6139  -9.2789
    -8.2508  -7.5954  -7.3630  -6.4517  -4.4502  -2.4430  -1.2495  -0.9944
     0.3513

          k = 0.2917 0.5052 0.0000 ( 15932 PWs)   bands (ev):

   -65.0670 -39.3984 -39.3046 -39.2229 -16.3716 -16.2643  -9.5925  -9.2283
    -8.1001  -7.7859  -7.3920  -6.4021  -4.4928  -2.4248  -1.3040  -1.0452
     0.3840

          k = 0.2917 0.5533 0.0000 ( 15934 PWs)   bands (ev):

   -65.0662 -39.3903 -39.3220 -39.2214 -16.3228 -16.2402  -9.6744  -9.0782
    -8.2705  -7.8718  -7.3016  -6.5192  -4.3764  -2.5471  -1.3257  -0.8972
     0.4487

          k = 0.3333 0.5774 0.0000 ( 15894 PWs)   bands (ev):

   -65.0659 -39.3792 -39.3370 -39.2208 -16.3030 -16.2296  -9.7110  -8.9236
    -8.4017  -7.9468  -7.2511  -6.5779  -4.3190  -2.6157  -1.3516  -0.8298
     0.4923

     the Fermi energy is    -2.5148 ev

!    total energy              =    -184.91845798 Ry
     estimated scf accuracy    <          1.3E-13 Ry
     smearing contrib. (-TS)   =      -0.00149046 Ry
     internal energy E=F+TS    =    -184.91696753 Ry

     The total energy is F=E-TS. E is the sum of the following terms:
     one-electron contribution =   -1381.82977631 Ry
     hartree contribution      =     688.09281495 Ry
     xc contribution           =     -33.40684858 Ry
     ewald contribution        =     542.22684241 Ry

     convergence has been achieved in  14 iterations

     Writing all to output data dir ./mos2.save/ :
     XML data file, charge density, pseudopotentials, collected wavefunctions
 
     init_run     :      1.18s CPU      1.45s WALL (       1 calls)
     electrons    :     37.76s CPU     39.07s WALL (       1 calls)

     Called by init_run:
     wfcinit      :      0.65s CPU      0.68s WALL (       1 calls)
     potinit      :      0.30s CPU      0.41s WALL (       1 calls)
     hinit0       :      0.16s CPU      0.23s WALL (       1 calls)

     Called by electrons:
     c_bands      :     27.33s CPU     27.71s WALL (      14 calls)
     sum_band     :      5.35s CPU      5.47s WALL (      14 calls)
     v_of_rho     :      3.11s CPU      3.29s WALL (      15 calls)
     mix_rho      :      0.33s CPU      0.38s WALL (      14 calls)

     Called by c_bands:
     init_us_2    :      0.46s CPU      0.48s WALL (      58 calls)
     init_us_2:cp :      0.46s CPU      0.48s WALL (      58 calls)
     cegterg      :     24.01s CPU     24.35s WALL (      28 calls)

     Called by *egterg:
     cdiaghg      :      0.05s CPU      0.05s WALL (     118 calls)
     h_psi        :     22.24s CPU     22.55s WALL (     120 calls)
     g_psi        :      0.05s CPU      0.05s WALL (      90 calls)

     Called by h_psi:
     h_psi:calbec :      0.67s CPU      0.68s WALL (     120 calls)
     vloc_psi     :     20.57s CPU     20.84s WALL (     120 calls)
     add_vuspsi   :      0.89s CPU      0.90s WALL (     120 calls)

     General routines
     calbec       :      0.67s CPU      0.68s WALL (     120 calls)
     fft          :      1.27s CPU      1.34s WALL (     150 calls)
     ffts         :      0.11s CPU      0.11s WALL (      14 calls)
     fftw         :     21.34s CPU     21.60s WALL (    3182 calls)
 
     Parallel routines
 
     PWSCF        :     39.08s CPU     43.77s WALL

 
   This run was terminated on:   9:43:44  29Apr2024            

=------------------------------------------------------------------------------=
   JOB DONE.
=------------------------------------------------------------------------------=
